 160 160   0   0
  0.2741897E+02  0.1260737E-08  0.1782951E-08  0.2760082E-08  0.5000000E-15
  1.000000000000000E-004
  CAR 
 unknown system                          
      6.80078803    -16.35636796  301      0.08762499      1.00000000
    -16.356  0.0000E+00  0.0000E+00
    -16.279  0.0000E+00  0.0000E+00
    -16.202  0.0000E+00  0.0000E+00
    -16.125  0.0000E+00  0.0000E+00
    -16.048  0.0000E+00  0.0000E+00
    -15.970  0.0000E+00  0.0000E+00
    -15.893  0.8989E-18  0.6939E-19
    -15.816  0.3588E-14  0.2770E-15
    -15.739  0.6445E-11  0.4978E-12
    -15.662  0.3710E-08  0.2869E-09
    -15.584  0.7112E-06  0.5518E-07
    -15.507  0.4848E-04  0.3798E-05
    -15.430  0.1297E-02  0.1039E-03
    -15.353  0.1524E-01  0.1280E-02
    -15.276  0.8490E-01  0.7833E-02
    -15.199  0.2286E+00  0.2548E-01
    -15.121  0.3026E+00  0.4884E-01
    -15.044  0.2611E+00  0.6899E-01
    -14.967  0.3112E+00  0.9301E-01
    -14.890  0.3600E+00  0.1208E+00
    -14.813  0.2165E+00  0.1375E+00
    -14.735  0.1123E+00  0.1462E+00
    -14.658  0.1073E+00  0.1545E+00
    -14.581  0.5871E-01  0.1590E+00
    -14.504  0.1219E-01  0.1599E+00
    -14.427  0.9194E-03  0.1600E+00
    -14.349  0.2469E-04  0.1600E+00
    -14.272  0.2306E-06  0.1600E+00
    -14.195  0.7305E-09  0.1600E+00
    -14.118  0.7674E-12  0.1600E+00
    -14.041  0.2535E-15  0.1600E+00
    -13.963  0.0000E+00  0.1600E+00
    -13.886  0.0000E+00  0.1600E+00
    -13.809  0.0000E+00  0.1600E+00
    -13.732  0.0000E+00  0.1600E+00
    -13.655  0.0000E+00  0.1600E+00
    -13.578  0.0000E+00  0.1600E+00
    -13.500  0.0000E+00  0.1600E+00
    -13.423  0.0000E+00  0.1600E+00
    -13.346  0.0000E+00  0.1600E+00
    -13.269  0.0000E+00  0.1600E+00
    -13.192  0.0000E+00  0.1600E+00
    -13.114  0.0000E+00  0.1600E+00
    -13.037  0.0000E+00  0.1600E+00
    -12.960  0.0000E+00  0.1600E+00
    -12.883  0.0000E+00  0.1600E+00
    -12.806  0.0000E+00  0.1600E+00
    -12.728  0.0000E+00  0.1600E+00
    -12.651  0.0000E+00  0.1600E+00
    -12.574  0.0000E+00  0.1600E+00
    -12.497  0.0000E+00  0.1600E+00
    -12.420  0.0000E+00  0.1600E+00
    -12.342  0.0000E+00  0.1600E+00
    -12.265  0.0000E+00  0.1600E+00
    -12.188  0.0000E+00  0.1600E+00
    -12.111  0.0000E+00  0.1600E+00
    -12.034  0.0000E+00  0.1600E+00
    -11.957  0.0000E+00  0.1600E+00
    -11.879  0.0000E+00  0.1600E+00
    -11.802  0.0000E+00  0.1600E+00
    -11.725  0.0000E+00  0.1600E+00
    -11.648  0.0000E+00  0.1600E+00
    -11.571  0.0000E+00  0.1600E+00
    -11.493  0.0000E+00  0.1600E+00
    -11.416  0.0000E+00  0.1600E+00
    -11.339  0.0000E+00  0.1600E+00
    -11.262  0.0000E+00  0.1600E+00
    -11.185  0.0000E+00  0.1600E+00
    -11.107  0.0000E+00  0.1600E+00
    -11.030  0.0000E+00  0.1600E+00
    -10.953  0.0000E+00  0.1600E+00
    -10.876  0.0000E+00  0.1600E+00
    -10.799  0.0000E+00  0.1600E+00
    -10.721  0.0000E+00  0.1600E+00
    -10.644  0.0000E+00  0.1600E+00
    -10.567  0.0000E+00  0.1600E+00
    -10.490  0.0000E+00  0.1600E+00
    -10.413  0.0000E+00  0.1600E+00
    -10.336  0.0000E+00  0.1600E+00
    -10.258  0.0000E+00  0.1600E+00
    -10.181  0.0000E+00  0.1600E+00
    -10.104  0.0000E+00  0.1600E+00
    -10.027  0.0000E+00  0.1600E+00
     -9.950  0.0000E+00  0.1600E+00
     -9.872  0.0000E+00  0.1600E+00
     -9.795  0.0000E+00  0.1600E+00
     -9.718  0.0000E+00  0.1600E+00
     -9.641  0.0000E+00  0.1600E+00
     -9.564  0.0000E+00  0.1600E+00
     -9.486  0.0000E+00  0.1600E+00
     -9.409  0.0000E+00  0.1600E+00
     -9.332  0.0000E+00  0.1600E+00
     -9.255  0.0000E+00  0.1600E+00
     -9.178  0.0000E+00  0.1600E+00
     -9.100  0.0000E+00  0.1600E+00
     -9.023  0.0000E+00  0.1600E+00
     -8.946  0.0000E+00  0.1600E+00
     -8.869  0.0000E+00  0.1600E+00
     -8.792  0.0000E+00  0.1600E+00
     -8.715  0.0000E+00  0.1600E+00
     -8.637  0.0000E+00  0.1600E+00
     -8.560  0.0000E+00  0.1600E+00
     -8.483  0.0000E+00  0.1600E+00
     -8.406  0.0000E+00  0.1600E+00
     -8.329  0.0000E+00  0.1600E+00
     -8.251  0.0000E+00  0.1600E+00
     -8.174  0.0000E+00  0.1600E+00
     -8.097  0.0000E+00  0.1600E+00
     -8.020  0.0000E+00  0.1600E+00
     -7.943  0.0000E+00  0.1600E+00
     -7.865  0.0000E+00  0.1600E+00
     -7.788  0.0000E+00  0.1600E+00
     -7.711  0.0000E+00  0.1600E+00
     -7.634  0.0000E+00  0.1600E+00
     -7.557  0.0000E+00  0.1600E+00
     -7.479  0.0000E+00  0.1600E+00
     -7.402  0.0000E+00  0.1600E+00
     -7.325  0.0000E+00  0.1600E+00
     -7.248  0.0000E+00  0.1600E+00
     -7.171  0.0000E+00  0.1600E+00
     -7.094  0.0000E+00  0.1600E+00
     -7.016  0.0000E+00  0.1600E+00
     -6.939  0.0000E+00  0.1600E+00
     -6.862  0.0000E+00  0.1600E+00
     -6.785  0.0000E+00  0.1600E+00
     -6.708  0.0000E+00  0.1600E+00
     -6.630  0.0000E+00  0.1600E+00
     -6.553  0.0000E+00  0.1600E+00
     -6.476  0.0000E+00  0.1600E+00
     -6.399  0.0000E+00  0.1600E+00
     -6.322  0.0000E+00  0.1600E+00
     -6.244  0.0000E+00  0.1600E+00
     -6.167  0.0000E+00  0.1600E+00
     -6.090  0.0000E+00  0.1600E+00
     -6.013  0.0000E+00  0.1600E+00
     -5.936  0.0000E+00  0.1600E+00
     -5.858  0.0000E+00  0.1600E+00
     -5.781  0.0000E+00  0.1600E+00
     -5.704  0.0000E+00  0.1600E+00
     -5.627  0.0000E+00  0.1600E+00
     -5.550  0.0000E+00  0.1600E+00
     -5.473  0.0000E+00  0.1600E+00
     -5.395  0.0000E+00  0.1600E+00
     -5.318  0.0000E+00  0.1600E+00
     -5.241  0.0000E+00  0.1600E+00
     -5.164  0.0000E+00  0.1600E+00
     -5.087  0.0000E+00  0.1600E+00
     -5.009  0.0000E+00  0.1600E+00
     -4.932  0.0000E+00  0.1600E+00
     -4.855  0.0000E+00  0.1600E+00
     -4.778  0.0000E+00  0.1600E+00
     -4.701  0.0000E+00  0.1600E+00
     -4.623  0.3350E-14  0.1600E+00
     -4.546  0.7205E-11  0.1600E+00
     -4.469  0.4945E-08  0.1600E+00
     -4.392  0.1105E-05  0.1600E+00
     -4.315  0.8282E-04  0.1600E+00
     -4.237  0.2179E-02  0.1602E+00
     -4.160  0.2161E-01  0.1618E+00
     -4.083  0.9029E-01  0.1688E+00
     -4.006  0.1839E+00  0.1830E+00
     -3.929  0.2214E+00  0.2001E+00
     -3.852  0.2409E+00  0.2187E+00
     -3.774  0.3363E+00  0.2447E+00
     -3.697  0.3797E+00  0.2740E+00
     -3.620  0.3210E+00  0.2987E+00
     -3.543  0.2698E+00  0.3196E+00
     -3.466  0.2239E+00  0.3368E+00
     -3.388  0.2158E+00  0.3535E+00
     -3.311  0.2349E+00  0.3716E+00
     -3.234  0.2015E+00  0.3872E+00
     -3.157  0.1188E+00  0.3964E+00
     -3.080  0.4041E-01  0.3995E+00
     -3.002  0.6269E-02  0.4000E+00
     -2.925  0.3806E-03  0.4000E+00
     -2.848  0.8317E-05  0.4000E+00
     -2.771  0.6220E-07  0.4000E+00
     -2.694  0.1537E-09  0.4000E+00
     -2.616  0.1226E-12  0.4000E+00
     -2.539  0.2877E-16  0.4000E+00
     -2.462  0.0000E+00  0.4000E+00
     -2.385  0.0000E+00  0.4000E+00
     -2.308  0.0000E+00  0.4000E+00
     -2.231  0.0000E+00  0.4000E+00
     -2.153  0.0000E+00  0.4000E+00
     -2.076  0.0000E+00  0.4000E+00
     -1.999  0.0000E+00  0.4000E+00
     -1.922  0.0000E+00  0.4000E+00
     -1.845  0.0000E+00  0.4000E+00
     -1.767  0.8495E-15  0.4000E+00
     -1.690  0.2106E-11  0.4000E+00
     -1.613  0.1630E-08  0.4000E+00
     -1.536  0.3976E-06  0.4000E+00
     -1.459  0.3096E-04  0.4000E+00
     -1.381  0.7881E-03  0.4001E+00
     -1.304  0.6901E-02  0.4006E+00
     -1.227  0.2424E-01  0.4025E+00
     -1.150  0.5369E-01  0.4066E+00
     -1.073  0.1298E+00  0.4166E+00
     -0.995  0.2809E+00  0.4383E+00
     -0.918  0.4118E+00  0.4701E+00
     -0.841  0.4306E+00  0.5033E+00
     -0.764  0.3952E+00  0.5338E+00
     -0.687  0.3927E+00  0.5642E+00
     -0.610  0.3403E+00  0.5904E+00
     -0.532  0.2138E+00  0.6069E+00
     -0.455  0.1555E+00  0.6189E+00
     -0.378  0.1630E+00  0.6315E+00
     -0.301  0.9008E-01  0.6385E+00
     -0.224  0.1850E-01  0.6399E+00
     -0.146  0.1329E-02  0.6400E+00
     -0.069  0.3245E-04  0.6400E+00
      0.008  0.2633E-06  0.6400E+00
      0.085  0.6956E-09  0.6400E+00
      0.162  0.5893E-12  0.6400E+00
      0.240  0.1564E-15  0.6400E+00
      0.317  0.0000E+00  0.6400E+00
      0.394  0.0000E+00  0.6400E+00
      0.471  0.0000E+00  0.6400E+00
      0.548  0.0000E+00  0.6400E+00
      0.626  0.0000E+00  0.6400E+00
      0.703  0.0000E+00  0.6400E+00
      0.780  0.0000E+00  0.6400E+00
      0.857  0.0000E+00  0.6400E+00
      0.934  0.7102E-16  0.6400E+00
      1.011  0.2164E-12  0.6400E+00
      1.089  0.2038E-09  0.6400E+00
      1.166  0.6016E-07  0.6400E+00
      1.243  0.5628E-05  0.6400E+00
      1.320  0.1694E-03  0.6400E+00
      1.397  0.1676E-02  0.6401E+00
      1.475  0.5658E-02  0.6406E+00
      1.552  0.7664E-02  0.6412E+00
      1.629  0.7623E-02  0.6418E+00
      1.706  0.6630E-02  0.6423E+00
      1.783  0.2592E-02  0.6425E+00
      1.861  0.3531E-03  0.6425E+00
      1.938  0.1737E-04  0.6425E+00
      2.015  0.6650E-04  0.6425E+00
      2.092  0.1089E-02  0.6426E+00
      2.169  0.7448E-02  0.6432E+00
      2.247  0.2510E-01  0.6451E+00
      2.324  0.4516E-01  0.6486E+00
      2.401  0.4311E-01  0.6519E+00
      2.478  0.1980E-01  0.6534E+00
      2.555  0.3745E-02  0.6537E+00
      2.632  0.1212E-02  0.6538E+00
      2.710  0.8740E-02  0.6545E+00
      2.787  0.3128E-01  0.6569E+00
      2.864  0.5930E-01  0.6615E+00
      2.941  0.6712E-01  0.6667E+00
      3.018  0.3537E-01  0.6694E+00
      3.096  0.7188E-02  0.6700E+00
      3.173  0.7948E-03  0.6700E+00
      3.250  0.2590E-02  0.6702E+00
      3.327  0.1201E-01  0.6711E+00
      3.404  0.3573E-01  0.6739E+00
      3.482  0.6196E-01  0.6787E+00
      3.559  0.5603E-01  0.6830E+00
      3.636  0.4581E-01  0.6865E+00
      3.713  0.5108E-01  0.6905E+00
      3.790  0.6187E-01  0.6953E+00
      3.868  0.8024E-01  0.7015E+00
      3.945  0.6813E-01  0.7067E+00
      4.022  0.4834E-01  0.7105E+00
      4.099  0.4074E-01  0.7136E+00
      4.176  0.3885E-01  0.7166E+00
      4.254  0.4892E-01  0.7204E+00
      4.331  0.7770E-01  0.7264E+00
      4.408  0.8523E-01  0.7329E+00
      4.485  0.5887E-01  0.7375E+00
      4.562  0.4725E-01  0.7411E+00
      4.639  0.8192E-01  0.7475E+00
      4.717  0.8650E-01  0.7541E+00
      4.794  0.5788E-01  0.7586E+00
      4.871  0.5703E-01  0.7630E+00
      4.948  0.6923E-01  0.7684E+00
      5.025  0.9679E-01  0.7758E+00
      5.103  0.1194E+00  0.7850E+00
      5.180  0.1224E+00  0.7945E+00
      5.257  0.1243E+00  0.8041E+00
      5.334  0.1338E+00  0.8144E+00
      5.411  0.1310E+00  0.8245E+00
      5.489  0.9527E-01  0.8319E+00
      5.566  0.8023E-01  0.8381E+00
      5.643  0.9470E-01  0.8454E+00
      5.720  0.9840E-01  0.8530E+00
      5.797  0.6565E-01  0.8580E+00
      5.875  0.2208E-01  0.8598E+00
      5.952  0.3058E-02  0.8600E+00
      6.029  0.1531E-03  0.8600E+00
      6.106  0.2582E-05  0.8600E+00
      6.183  0.1412E-07  0.8600E+00
      6.260  0.2455E-10  0.8600E+00
      6.338  0.1339E-13  0.8600E+00
      6.415  0.0000E+00  0.8600E+00
      6.492  0.0000E+00  0.8600E+00
      6.569  0.0000E+00  0.8600E+00
      6.646  0.0000E+00  0.8600E+00
      6.724  0.0000E+00  0.8600E+00
      6.801  0.0000E+00  0.8600E+00
