 vasp.6.2.1 16May21 (build Dec 23 2021 00:35:04) complex                        
  
 executed on             LinuxIFC date 2023.03.27  23:51:59
 running on  120 total cores
 distrk:  each k-point on  120 cores,    1 groups
 distr:  one band on NCORE=  15 cores,    8 groups


--------------------------------------------------------------------------------------------------------


 INCAR:
   ENCUT = 400.000000
   KSPACING = 0.500000
   SIGMA = 0.100000
   EDIFF = 1.00e-08
   EDIFFG = -1.00e-02
   ALGO = Fast
   GGA = PE
   PREC = Normal
   IBRION = 2
   IDIPOL = 3
   ISIF = 2
   ISMEAR = 0
   ISPIN = 0
   ISYM = 0
   LMAXMIX = 6
   NELM = 150
   NPAR = 8
   NSW = 800
   NWRITE = 1
   DIPOL = 0.3787 0.4227 0.4988
   KGAMMA = .TRUE.
   LASPH = .TRUE.
   LCHARG = .FALSE.
   LDIPOL = .TRUE.
   LWAVE = .FALSE.
   LREAL = AUTO

 POTCAR:    PAW_PBE Na 08Apr2002                  
 POTCAR:    PAW_PBE O 08Apr2002                   
 POTCAR:    PAW_PBE Cl 06Sep2000                  
 POTCAR:    PAW_PBE Na 08Apr2002                  
  local pseudopotential read in
  partial core-charges read in
  partial kinetic energy density read in
  atomic valenz-charges read in
  non local Contribution for L=           0  read in
    real space projection operators read in
  non local Contribution for L=           0  read in
    real space projection operators read in
  non local Contribution for L=           1  read in
    real space projection operators read in
    PAW grid and wavefunctions read in
 
   number of l-projection  operators is LMAX  =           3
   number of lm-projection operators is LMMAX =           5
 
 POTCAR:    PAW_PBE O 08Apr2002                   
  local pseudopotential read in
  partial core-charges read in
  partial kinetic energy density read in
  kinetic energy density of atom read in
  atomic valenz-charges read in
  non local Contribution for L=           0  read in
    real space projection operators read in
  non local Contribution for L=           0  read in
    real space projection operators read in
  non local Contribution for L=           1  read in
    real space projection operators read in
  non local Contribution for L=           1  read in
    real space projection operators read in
    PAW grid and wavefunctions read in
 
   number of l-projection  operators is LMAX  =           4
   number of lm-projection operators is LMMAX =           8
 
 POTCAR:    PAW_PBE Cl 06Sep2000                  
  local pseudopotential read in
  partial core-charges read in
  partial kinetic energy density read in
  atomic valenz-charges read in
  non local Contribution for L=           0  read in
    real space projection operators read in
  non local Contribution for L=           0  read in
    real space projection operators read in
  non local Contribution for L=           1  read in
    real space projection operators read in
  non local Contribution for L=           1  read in
    real space projection operators read in
    PAW grid and wavefunctions read in
 
   number of l-projection  operators is LMAX  =           4
   number of lm-projection operators is LMMAX =           8
 
 Optimization of the real space projectors (new method)

 maximal supplied QI-value         = 17.01
 optimisation between [QCUT,QGAM] = [ 10.20, 20.41] = [ 29.16,116.64] Ry 
 Optimized for a Real-space Cutoff    1.19 Angstroem

   l    n(q)    QCUT    max X(q) W(low)/X(q) W(high)/X(q)  e(spline) 
   0      7    10.205    45.123    0.22E-03    0.82E-03    0.11E-06
   0      7    10.205    12.364    0.17E-03    0.61E-03    0.75E-07
   1      7    10.205     8.302    0.37E-03    0.15E-03    0.27E-07
 Optimization of the real space projectors (new method)

 maximal supplied QI-value         = 24.76
 optimisation between [QCUT,QGAM] = [ 10.15, 20.30] = [ 28.85,115.39] Ry 
 Optimized for a Real-space Cutoff    1.38 Angstroem

   l    n(q)    QCUT    max X(q) W(low)/X(q) W(high)/X(q)  e(spline) 
   0      8    10.150    20.381    0.22E-03    0.32E-03    0.29E-06
   0      8    10.150    15.268    0.23E-03    0.35E-03    0.30E-06
   1      8    10.150     5.964    0.46E-03    0.53E-03    0.21E-06
   1      8    10.150     5.382    0.38E-03    0.45E-03    0.19E-06
 Optimization of the real space projectors (new method)

 maximal supplied QI-value         = 19.84
 optimisation between [QCUT,QGAM] = [ 10.12, 20.44] = [ 28.68,116.96] Ry 
 Optimized for a Real-space Cutoff    1.23 Angstroem

   l    n(q)    QCUT    max X(q) W(low)/X(q) W(high)/X(q)  e(spline) 
   0      7    10.119   168.010    0.54E-04    0.25E-03    0.48E-07
   0      7    10.119   164.674    0.53E-04    0.25E-03    0.47E-07
   1      7    10.119    69.222    0.45E-03    0.63E-03    0.13E-06
   1      7    10.119    56.786    0.45E-03    0.62E-03    0.13E-06
  PAW_PBE Na 08Apr2002                  :
 energy of atom  1       EATOM=   -5.1581
 kinetic energy error for atom=    0.0001 (will be added to EATOM!!)
  PAW_PBE O 08Apr2002                   :
 energy of atom  2       EATOM= -432.3788
 kinetic energy error for atom=    0.1156 (will be added to EATOM!!)
  PAW_PBE Cl 06Sep2000                  :
 energy of atom  3       EATOM= -409.7259
 kinetic energy error for atom=    0.0089 (will be added to EATOM!!)
 
 
 POSCAR: Na  O Cl
  positions in cartesian coordinates
  No initial velocities read in
 exchange correlation table for  LEXCH =        8
   RHO(1)=    0.500       N(1)  =     2000
   RHO(2)=  100.500       N(2)  =     4000
 


--------------------------------------------------------------------------------------------------------


 ion  position               nearest neighbor table
   1  0.250  0.000  0.298-  97 2.23  98 2.23 145 3.15  83 3.15   9 3.15 133 3.15 157 3.15  86 3.15
                            12 3.15  45 3.15   2 3.15 129 3.15  46 3.15   4 3.15
   2  0.000  0.125  0.217- 117 2.23  97 2.23  69 3.15  58 3.15 133 3.15  57 3.15   9 3.15 129 3.15
                             1 3.15  45 3.15
   3  0.250  0.000  0.460-  98 2.23  99 2.23  86 3.15  12 3.15 146 3.15  46 3.15   4 3.15 134 3.15
                           158 3.15  89 3.15  15 3.15 130 3.15  47 3.15   6 3.15
   4  0.000  0.125  0.379- 118 2.23  98 2.23  61 3.15 134 3.15  72 3.15 130 3.15   3 3.15  60 3.15
                            12 3.15  58 3.15 133 3.15  46 3.15 129 3.15   1 3.15
   5  0.250  0.000  0.621-  99 2.23 100 2.23  89 3.15  15 3.15 147 3.15  47 3.15   6 3.15 135 3.15
                           159 3.15  92 3.15  18 3.15 131 3.15  48 3.15   8 3.15
   6  0.000  0.125  0.540- 119 2.23  99 2.23  64 3.15 135 3.15  75 3.15 131 3.15   5 3.15  63 3.15
                            15 3.15  61 3.15 134 3.15  47 3.15 130 3.15   3 3.15
   7  0.250  0.000  0.783- 100 2.23 148 3.15  92 3.15  18 3.15 136 3.15 160 3.15  48 3.15   8 3.15
                           132 3.15
   8  0.000  0.125  0.702- 120 2.23 100 2.23  78 3.15  67 3.15 136 3.15  66 3.15  18 3.15  64 3.15
                           135 3.15 132 3.15   7 3.15  48 3.15 131 3.15   5 3.15
   9  0.250  0.125  0.217-  97 2.23 101 2.23  83 3.15 145 3.15   1 3.15  50 3.15   2 3.15  10 3.15
                           133 3.15  11 3.15
  10  0.250  0.250  0.298- 101 2.23 102 2.23 149 3.15  50 3.15  21 3.15 145 3.15 137 3.15  52 3.15
                            24 3.15   9 3.15  11 3.15 133 3.15  12 3.15  14 3.15
  11  0.000  0.375  0.217- 121 2.23 101 2.23  81 3.15  70 3.15 137 3.15  69 3.15  21 3.15 133 3.15
                            10 3.15   9 3.15
  12  0.250  0.125  0.379-  98 2.23 102 2.23 146 3.15   3 3.15  86 3.15  13 3.15 134 3.15  52 3.15
                             4 3.15 145 3.15   1 3.15  14 3.15  10 3.15 133 3.15
  13  0.250  0.250  0.460- 102 2.23 103 2.23  52 3.15  24 3.15 150 3.15  12 3.15  14 3.15 146 3.15
                           138 3.15  54 3.15  27 3.15 134 3.15  15 3.15  17 3.15
  14  0.000  0.375  0.379- 122 2.23 102 2.23  73 3.15 138 3.15  84 3.15 134 3.15  13 3.15  72 3.15
                            24 3.15  70 3.15 137 3.15  12 3.15 133 3.15  10 3.15
  15  0.250  0.125  0.540-  99 2.23 103 2.23 147 3.15   5 3.15  89 3.15  16 3.15 135 3.15  54 3.15
                             6 3.15 146 3.15   3 3.15  17 3.15  13 3.15 134 3.15
  16  0.250  0.250  0.621- 103 2.23 104 2.23  54 3.15  27 3.15 151 3.15  15 3.15  17 3.15 147 3.15
                           139 3.15  56 3.15  30 3.15 135 3.15  18 3.15  20 3.15
  17  0.000  0.375  0.540- 123 2.23 103 2.23  76 3.15 139 3.15  87 3.15 135 3.15  16 3.15  75 3.15
                            27 3.15  73 3.15 138 3.15  15 3.15 134 3.15  13 3.15
  18  0.250  0.125  0.702- 100 2.23 104 2.23  92 3.15 148 3.15   7 3.15  56 3.15   8 3.15 147 3.15
                             5 3.15  19 3.15 136 3.15  20 3.15  16 3.15 135 3.15
  19  0.250  0.250  0.783- 104 2.23 152 3.15  56 3.15  30 3.15 148 3.15 140 3.15  18 3.15  20 3.15
                           136 3.15
  20  0.000  0.375  0.702- 124 2.23 104 2.23  90 3.15  79 3.15 140 3.15  78 3.15  30 3.15  76 3.15
                           139 3.15 136 3.15  19 3.15  18 3.15 135 3.15  16 3.15
  21  0.250  0.375  0.217- 101 2.23 105 2.23  50 3.15 149 3.15  10 3.15  59 3.15  11 3.15  22 3.15
                           137 3.15  23 3.15
  22  0.250  0.500  0.298- 105 2.23 106 2.23 153 3.15  59 3.15  33 3.15 149 3.15 141 3.15  62 3.15
                            36 3.15  21 3.15  23 3.15 137 3.15  24 3.15  26 3.15
  23  0.000  0.625  0.217- 125 2.23 105 2.23  93 3.15  82 3.15 141 3.15  81 3.15  33 3.15 137 3.15
                            22 3.15  21 3.15
  24  0.250  0.375  0.379- 102 2.23 106 2.23 150 3.15  13 3.15  52 3.15  25 3.15 138 3.15  62 3.15
                            14 3.15 149 3.15  10 3.15  26 3.15  22 3.15 137 3.15
  25  0.250  0.500  0.460- 106 2.23 107 2.23  62 3.15  36 3.15 154 3.15  24 3.15  26 3.15 150 3.15
                           142 3.15  65 3.15  39 3.15 138 3.15  27 3.15  29 3.15
  26  0.000  0.625  0.379- 126 2.23 106 2.23  85 3.15 142 3.15  94 3.15 138 3.15  25 3.15  84 3.15
                            36 3.15  82 3.15 141 3.15  24 3.15 137 3.15  22 3.15
  27  0.250  0.375  0.540- 103 2.23 107 2.23 151 3.15  16 3.15  54 3.15  28 3.15 139 3.15  65 3.15
                            17 3.15 150 3.15  13 3.15  29 3.15  25 3.15 138 3.15
  28  0.250  0.500  0.621- 107 2.23 108 2.23  65 3.15  39 3.15 155 3.15  27 3.15  29 3.15 151 3.15
                           143 3.15  68 3.15  42 3.15 139 3.15  30 3.15  32 3.15
  29  0.000  0.625  0.540- 127 2.23 107 2.23  88 3.15 143 3.15  95 3.15 139 3.15  28 3.15  87 3.15
                            39 3.15  85 3.15 142 3.15  27 3.15 138 3.15  25 3.15
  30  0.250  0.375  0.702- 104 2.23 108 2.23  56 3.15 152 3.15  19 3.15  68 3.15  20 3.15 151 3.15
                            16 3.15  31 3.15 140 3.15  32 3.15  28 3.15 139 3.15
  31  0.250  0.500  0.783- 108 2.23 156 3.15  68 3.15  42 3.15 152 3.15 144 3.15  30 3.15  32 3.15
                           140 3.15
  32  0.000  0.625  0.702- 128 2.23 108 2.23  96 3.15  91 3.15 144 3.15  90 3.15  42 3.15  88 3.15
                           143 3.15 140 3.15  31 3.15  30 3.15 139 3.15  28 3.15
  33  0.250  0.625  0.217- 105 2.23 109 2.23  59 3.15 153 3.15  22 3.15  71 3.15  23 3.15  34 3.15
                           141 3.15  35 3.15
  34  0.250  0.750  0.298- 109 2.23 110 2.23 157 3.15  71 3.15  45 3.15 153 3.15 129 3.15  74 3.15
                            46 3.15  33 3.15  35 3.15 141 3.15  36 3.15  38 3.15
  35  0.000  0.875  0.217- 113 2.23 109 2.23  57 3.15  49 3.15 129 3.15  93 3.15  45 3.15 141 3.15
                            34 3.15  33 3.15
  36  0.250  0.625  0.379- 106 2.23 110 2.23 154 3.15  25 3.15  62 3.15  37 3.15 142 3.15  74 3.15
                            26 3.15 153 3.15  22 3.15  38 3.15  34 3.15 141 3.15
  37  0.250  0.750  0.460- 110 2.23 111 2.23  74 3.15  46 3.15 158 3.15  36 3.15  38 3.15 154 3.15
                           130 3.15  77 3.15  47 3.15 142 3.15  39 3.15  41 3.15
  38  0.000  0.875  0.379- 114 2.23 110 2.23  51 3.15 130 3.15  60 3.15 142 3.15  37 3.15  94 3.15
                            46 3.15  49 3.15 129 3.15  36 3.15 141 3.15  34 3.15
  39  0.250  0.625  0.540- 107 2.23 111 2.23 155 3.15  28 3.15  65 3.15  40 3.15 143 3.15  77 3.15
                            29 3.15 154 3.15  25 3.15  41 3.15  37 3.15 142 3.15
  40  0.250  0.750  0.621- 111 2.23 112 2.23  77 3.15  47 3.15 159 3.15  39 3.15  41 3.15 155 3.15
                           131 3.15  80 3.15  48 3.15 143 3.15  42 3.15  44 3.15
  41  0.000  0.875  0.540- 115 2.23 111 2.23  53 3.15 131 3.15  63 3.15 143 3.15  40 3.15  95 3.15
                            47 3.15  51 3.15 130 3.15  39 3.15 142 3.15  37 3.15
  42  0.250  0.625  0.702- 108 2.23 112 2.23  68 3.15 156 3.15  31 3.15  80 3.15  32 3.15 155 3.15
                            28 3.15  43 3.15 144 3.15  44 3.15  40 3.15 143 3.15
  43  0.250  0.750  0.783- 112 2.23 160 3.15  80 3.15  48 3.15 156 3.15 132 3.15  42 3.15  44 3.15
                           144 3.15
  44  0.000  0.875  0.702- 116 2.23 112 2.23  66 3.15  55 3.15 132 3.15  96 3.15  48 3.15  53 3.15
                           131 3.15 144 3.15  43 3.15  42 3.15 143 3.15  40 3.15
  45  0.250  0.875  0.217- 109 2.23  97 2.23  71 3.15 157 3.15  34 3.15  83 3.15  35 3.15   1 3.15
                           129 3.15   2 3.15
  46  0.250  0.875  0.379- 110 2.23  98 2.23 158 3.15  37 3.15  74 3.15   3 3.15 130 3.15  86 3.15
                            38 3.15 157 3.15  34 3.15   4 3.15   1 3.15 129 3.15
  47  0.250  0.875  0.540- 111 2.23  99 2.23 159 3.15  40 3.15  77 3.15   5 3.15 131 3.15  89 3.15
                            41 3.15 158 3.15  37 3.15   6 3.15   3 3.15 130 3.15
  48  0.250  0.875  0.702- 112 2.23 100 2.23  80 3.15 160 3.15  43 3.15  92 3.15  44 3.15 159 3.15
                            40 3.15   7 3.15 132 3.15   8 3.15   5 3.15 131 3.15
  49  0.750  0.000  0.298- 113 2.23 114 2.23 129 3.15  35 3.15  57 3.15 141 3.15 149 3.15  38 3.15
                            60 3.15  93 3.15  50 3.15 145 3.15  94 3.15  52 3.15
  50  0.500  0.125  0.217- 101 2.23 113 2.23  21 3.15  10 3.15 149 3.15   9 3.15  57 3.15 145 3.15
                            49 3.15  93 3.15
  51  0.750  0.000  0.460- 114 2.23 115 2.23  38 3.15  60 3.15 130 3.15  94 3.15  52 3.15 142 3.15
                           150 3.15  41 3.15  63 3.15 146 3.15  95 3.15  54 3.15
  52  0.500  0.125  0.379- 102 2.23 114 2.23  13 3.15 150 3.15  24 3.15 146 3.15  51 3.15  12 3.15
                            60 3.15  10 3.15 149 3.15  94 3.15 145 3.15  49 3.15
  53  0.750  0.000  0.621- 115 2.23 116 2.23  41 3.15  63 3.15 131 3.15  95 3.15  54 3.15 143 3.15
                           151 3.15  44 3.15  66 3.15 147 3.15  96 3.15  56 3.15
  54  0.500  0.125  0.540- 103 2.23 115 2.23  16 3.15 151 3.15  27 3.15 147 3.15  53 3.15  15 3.15
                            63 3.15  13 3.15 150 3.15  95 3.15 146 3.15  51 3.15
  55  0.750  0.000  0.783- 116 2.23 132 3.15  44 3.15  66 3.15 144 3.15 152 3.15  96 3.15  56 3.15
                           148 3.15
  56  0.500  0.125  0.702- 104 2.23 116 2.23  30 3.15  19 3.15 152 3.15  18 3.15  66 3.15  16 3.15
                           151 3.15 148 3.15  55 3.15  96 3.15 147 3.15  53 3.15
  57  0.750  0.125  0.217- 113 2.23 117 2.23  35 3.15 129 3.15  49 3.15   2 3.15  50 3.15  58 3.15
                           149 3.15  59 3.15
  58  0.750  0.250  0.298- 117 2.23 118 2.23 133 3.15   2 3.15  69 3.15 129 3.15 153 3.15   4 3.15
                            72 3.15  57 3.15  59 3.15 149 3.15  60 3.15  62 3.15
  59  0.500  0.375  0.217- 105 2.23 117 2.23  33 3.15  22 3.15 153 3.15  21 3.15  69 3.15 149 3.15
                            58 3.15  57 3.15
  60  0.750  0.125  0.379- 114 2.23 118 2.23 130 3.15  51 3.15  38 3.15  61 3.15 150 3.15   4 3.15
                            52 3.15 129 3.15  49 3.15  62 3.15  58 3.15 149 3.15
  61  0.750  0.250  0.460- 118 2.23 119 2.23   4 3.15  72 3.15 134 3.15  60 3.15  62 3.15 130 3.15
                           154 3.15   6 3.15  75 3.15 150 3.15  63 3.15  65 3.15
  62  0.500  0.375  0.379- 106 2.23 118 2.23  25 3.15 154 3.15  36 3.15 150 3.15  61 3.15  24 3.15
                            72 3.15  22 3.15 153 3.15  60 3.15 149 3.15  58 3.15
  63  0.750  0.125  0.540- 115 2.23 119 2.23 131 3.15  53 3.15  41 3.15  64 3.15 151 3.15   6 3.15
                            54 3.15 130 3.15  51 3.15  65 3.15  61 3.15 150 3.15
  64  0.750  0.250  0.621- 119 2.23 120 2.23   6 3.15  75 3.15 135 3.15  63 3.15  65 3.15 131 3.15
                           155 3.15   8 3.15  78 3.15 151 3.15  66 3.15  68 3.15
  65  0.500  0.375  0.540- 107 2.23 119 2.23  28 3.15 155 3.15  39 3.15 151 3.15  64 3.15  27 3.15
                            75 3.15  25 3.15 154 3.15  63 3.15 150 3.15  61 3.15
  66  0.750  0.125  0.702- 116 2.23 120 2.23  44 3.15 132 3.15  55 3.15   8 3.15  56 3.15 131 3.15
                            53 3.15  67 3.15 152 3.15  68 3.15  64 3.15 151 3.15
  67  0.750  0.250  0.783- 120 2.23 136 3.15   8 3.15  78 3.15 132 3.15 156 3.15  66 3.15  68 3.15
                           152 3.15
  68  0.500  0.375  0.702- 108 2.23 120 2.23  42 3.15  31 3.15 156 3.15  30 3.15  78 3.15  28 3.15
                           155 3.15 152 3.15  67 3.15  66 3.15 151 3.15  64 3.15
  69  0.750  0.375  0.217- 117 2.23 121 2.23   2 3.15 133 3.15  58 3.15  11 3.15  59 3.15  70 3.15
                           153 3.15  71 3.15
  70  0.750  0.500  0.298- 121 2.23 122 2.23 137 3.15  11 3.15  81 3.15 133 3.15 157 3.15  14 3.15
                            84 3.15  69 3.15  71 3.15 153 3.15  72 3.15  74 3.15
  71  0.500  0.625  0.217- 109 2.23 121 2.23  45 3.15  34 3.15 157 3.15  33 3.15  81 3.15 153 3.15
                            70 3.15  69 3.15
  72  0.750  0.375  0.379- 118 2.23 122 2.23 134 3.15  61 3.15   4 3.15  73 3.15 154 3.15  14 3.15
                            62 3.15 133 3.15  58 3.15  74 3.15  70 3.15 153 3.15
  73  0.750  0.500  0.460- 122 2.23 123 2.23  14 3.15  84 3.15 138 3.15  72 3.15  74 3.15 134 3.15
                           158 3.15  17 3.15  87 3.15 154 3.15  75 3.15  77 3.15
  74  0.500  0.625  0.379- 110 2.23 122 2.23  37 3.15 158 3.15  46 3.15 154 3.15  73 3.15  36 3.15
                            84 3.15  34 3.15 157 3.15  72 3.15 153 3.15  70 3.15
  75  0.750  0.375  0.540- 119 2.23 123 2.23 135 3.15  64 3.15   6 3.15  76 3.15 155 3.15  17 3.15
                            65 3.15 134 3.15  61 3.15  77 3.15  73 3.15 154 3.15
  76  0.750  0.500  0.621- 123 2.23 124 2.23  17 3.15  87 3.15 139 3.15  75 3.15  77 3.15 135 3.15
                           159 3.15  20 3.15  90 3.15 155 3.15  78 3.15  80 3.15
  77  0.500  0.625  0.540- 111 2.23 123 2.23  40 3.15 159 3.15  47 3.15 155 3.15  76 3.15  39 3.15
                            87 3.15  37 3.15 158 3.15  75 3.15 154 3.15  73 3.15
  78  0.750  0.375  0.702- 120 2.23 124 2.23   8 3.15 136 3.15  67 3.15  20 3.15  68 3.15 135 3.15
                            64 3.15  79 3.15 156 3.15  80 3.15  76 3.15 155 3.15
  79  0.750  0.500  0.783- 124 2.23 140 3.15  20 3.15  90 3.15 136 3.15 160 3.15  78 3.15  80 3.15
                           156 3.15
  80  0.500  0.625  0.702- 112 2.23 124 2.23  48 3.15  43 3.15 160 3.15  42 3.15  90 3.15  40 3.15
                           159 3.15 156 3.15  79 3.15  78 3.15 155 3.15  76 3.15
  81  0.750  0.625  0.217- 121 2.23 125 2.23  11 3.15 137 3.15  70 3.15  23 3.15  71 3.15  82 3.15
                           157 3.15  83 3.15
  82  0.750  0.750  0.298- 125 2.23 126 2.23 141 3.15  23 3.15  93 3.15 137 3.15 145 3.15  26 3.15
                            94 3.15  81 3.15  83 3.15 157 3.15  84 3.15  86 3.15
  83  0.500  0.875  0.217-  97 2.23 125 2.23   9 3.15   1 3.15 145 3.15  45 3.15  93 3.15 157 3.15
                            82 3.15  81 3.15
  84  0.750  0.625  0.379- 122 2.23 126 2.23 138 3.15  73 3.15  14 3.15  85 3.15 158 3.15  26 3.15
                            74 3.15 137 3.15  70 3.15  86 3.15  82 3.15 157 3.15
  85  0.750  0.750  0.460- 126 2.23 127 2.23  26 3.15  94 3.15 142 3.15  84 3.15  86 3.15 138 3.15
                           146 3.15  29 3.15  95 3.15 158 3.15  87 3.15  89 3.15
  86  0.500  0.875  0.379-  98 2.23 126 2.23   3 3.15 146 3.15  12 3.15 158 3.15  85 3.15  46 3.15
                            94 3.15   1 3.15 145 3.15  84 3.15 157 3.15  82 3.15
  87  0.750  0.625  0.540- 123 2.23 127 2.23 139 3.15  76 3.15  17 3.15  88 3.15 159 3.15  29 3.15
                            77 3.15 138 3.15  73 3.15  89 3.15  85 3.15 158 3.15
  88  0.750  0.750  0.621- 127 2.23 128 2.23  29 3.15  95 3.15 143 3.15  87 3.15  89 3.15 139 3.15
                           147 3.15  32 3.15  96 3.15 159 3.15  90 3.15  92 3.15
  89  0.500  0.875  0.540-  99 2.23 127 2.23   5 3.15 147 3.15  15 3.15 159 3.15  88 3.15  47 3.15
                            95 3.15   3 3.15 146 3.15  87 3.15 158 3.15  85 3.15
  90  0.750  0.625  0.702- 124 2.23 128 2.23  20 3.15 140 3.15  79 3.15  32 3.15  80 3.15 139 3.15
                            76 3.15  91 3.15 160 3.15  92 3.15  88 3.15 159 3.15
  91  0.750  0.750  0.783- 128 2.23 144 3.15  32 3.15  96 3.15 140 3.15 148 3.15  90 3.15  92 3.15
                           160 3.15
  92  0.500  0.875  0.702- 100 2.23 128 2.23  18 3.15   7 3.15 148 3.15  48 3.15  96 3.15   5 3.15
                           147 3.15 160 3.15  91 3.15  90 3.15 159 3.15  88 3.15
  93  0.750  0.875  0.217- 125 2.23 113 2.23  23 3.15 141 3.15  82 3.15  35 3.15  83 3.15  49 3.15
                           145 3.15  50 3.15
  94  0.750  0.875  0.379- 126 2.23 114 2.23 142 3.15  85 3.15  26 3.15  51 3.15 146 3.15  38 3.15
                            86 3.15 141 3.15  82 3.15  52 3.15  49 3.15 145 3.15
  95  0.750  0.875  0.540- 127 2.23 115 2.23 143 3.15  88 3.15  29 3.15  53 3.15 147 3.15  41 3.15
                            89 3.15 142 3.15  85 3.15  54 3.15  51 3.15 146 3.15
  96  0.750  0.875  0.702- 128 2.23 116 2.23  32 3.15 144 3.15  91 3.15  44 3.15  92 3.15 143 3.15
                            88 3.15  55 3.15 148 3.15  56 3.15  53 3.15 147 3.15
  97  0.250  0.000  0.217-  83 2.23   9 2.23   1 2.23  45 2.23   2 2.23
  98  0.250  0.000  0.379-   3 2.23  86 2.23  12 2.23  46 2.23   4 2.23   1 2.23
  99  0.250  0.000  0.540-   5 2.23  89 2.23  15 2.23  47 2.23   6 2.23   3 2.23
 100  0.250  0.000  0.702-  92 2.23  18 2.23   7 2.23  48 2.23   8 2.23   5 2.23
 101  0.250  0.250  0.217-  50 2.23  21 2.23  10 2.23   9 2.23  11 2.23
 102  0.250  0.250  0.379-  13 2.23  52 2.23  24 2.23  12 2.23  14 2.23  10 2.23
 103  0.250  0.250  0.540-  16 2.23  54 2.23  27 2.23  15 2.23  17 2.23  13 2.23
 104  0.250  0.250  0.702-  56 2.23  30 2.23  19 2.23  18 2.23  20 2.23  16 2.23
 105  0.250  0.500  0.217-  59 2.23  33 2.23  22 2.23  21 2.23  23 2.23
 106  0.250  0.500  0.379-  25 2.23  62 2.23  36 2.23  24 2.23  26 2.23  22 2.23
 107  0.250  0.500  0.540-  28 2.23  65 2.23  39 2.23  27 2.23  29 2.23  25 2.23
 108  0.250  0.500  0.702-  68 2.23  42 2.23  31 2.23  30 2.23  32 2.23  28 2.23
 109  0.250  0.750  0.217-  71 2.23  45 2.23  34 2.23  33 2.23  35 2.23
 110  0.250  0.750  0.379-  37 2.23  74 2.23  46 2.23  36 2.23  38 2.23  34 2.23
 111  0.250  0.750  0.540-  40 2.23  77 2.23  47 2.23  39 2.23  41 2.23  37 2.23
 112  0.250  0.750  0.702-  80 2.23  48 2.23  43 2.23  42 2.23  44 2.23  40 2.23
 113  0.750  0.000  0.217-  35 2.23  57 2.23  49 2.23  93 2.23  50 2.23
 114  0.750  0.000  0.379-  51 2.23  38 2.23  60 2.23  94 2.23  52 2.23  49 2.23
 115  0.750  0.000  0.540-  53 2.23  41 2.23  63 2.23  95 2.23  54 2.23  51 2.23
 116  0.750  0.000  0.702-  44 2.23  66 2.23  55 2.23  96 2.23  56 2.23  53 2.23
 117  0.750  0.250  0.217-   2 2.23  69 2.23  58 2.23  57 2.23  59 2.23
 118  0.750  0.250  0.379-  61 2.23   4 2.23  72 2.23  60 2.23  62 2.23  58 2.23
 119  0.750  0.250  0.540-  64 2.23   6 2.23  75 2.23  63 2.23  65 2.23  61 2.23
 120  0.750  0.250  0.702-   8 2.23  78 2.23  67 2.23  66 2.23  68 2.23  64 2.23
 121  0.750  0.500  0.217-  11 2.23  81 2.23  70 2.23  69 2.23  71 2.23
 122  0.750  0.500  0.379-  73 2.23  14 2.23  84 2.23  72 2.23  74 2.23  70 2.23
 123  0.750  0.500  0.540-  76 2.23  17 2.23  87 2.23  75 2.23  77 2.23  73 2.23
 124  0.750  0.500  0.702-  20 2.23  90 2.23  79 2.23  78 2.23  80 2.23  76 2.23
 125  0.750  0.750  0.217-  23 2.23  93 2.23  82 2.23  81 2.23  83 2.23
 126  0.750  0.750  0.379-  85 2.23  26 2.23  94 2.23  84 2.23  86 2.23  82 2.23
 127  0.750  0.750  0.540-  88 2.23  29 2.23  95 2.23  87 2.23  89 2.23  85 2.23
 128  0.750  0.750  0.702-  32 2.23  96 2.23  91 2.23  90 2.23  92 2.23  88 2.23
 129  0.000  0.000  0.298-  49 3.15  57 3.15  35 3.15  34 3.15  58 3.15  60 3.15  38 3.15   2 3.15
                            45 3.15   1 3.15   4 3.15  46 3.15
 130  0.000  0.000  0.460-  60 3.15  38 3.15  51 3.15   4 3.15  46 3.15  37 3.15  61 3.15  63 3.15
                            41 3.15   3 3.15   6 3.15  47 3.15
 131  0.000  0.000  0.621-  63 3.15  41 3.15  53 3.15   6 3.15  47 3.15  40 3.15  64 3.15  66 3.15
                            44 3.15   5 3.15   8 3.15  48 3.15
 132  0.000  0.000  0.783-  55 3.15  66 3.15  44 3.15  43 3.15  67 3.15   8 3.15  48 3.15   7 3.15

 133  0.000  0.250  0.298-  58 3.15  69 3.15   2 3.15   1 3.15  70 3.15  72 3.15   4 3.15  11 3.15
                             9 3.15  10 3.15  14 3.15  12 3.15
 134  0.000  0.250  0.460-  72 3.15   4 3.15  61 3.15  14 3.15  12 3.15   3 3.15  73 3.15  75 3.15
                             6 3.15  13 3.15  17 3.15  15 3.15
 135  0.000  0.250  0.621-  75 3.15   6 3.15  64 3.15  17 3.15  15 3.15   5 3.15  76 3.15  78 3.15
                             8 3.15  16 3.15  20 3.15  18 3.15
 136  0.000  0.250  0.783-  67 3.15  78 3.15   8 3.15   7 3.15  79 3.15  20 3.15  18 3.15  19 3.15

 137  0.000  0.500  0.298-  70 3.15  81 3.15  11 3.15  10 3.15  82 3.15  84 3.15  14 3.15  23 3.15
                            21 3.15  22 3.15  26 3.15  24 3.15
 138  0.000  0.500  0.460-  84 3.15  14 3.15  73 3.15  26 3.15  24 3.15  13 3.15  85 3.15  87 3.15
                            17 3.15  25 3.15  29 3.15  27 3.15
 139  0.000  0.500  0.621-  87 3.15  17 3.15  76 3.15  29 3.15  27 3.15  16 3.15  88 3.15  90 3.15
                            20 3.15  28 3.15  32 3.15  30 3.15
 140  0.000  0.500  0.783-  79 3.15  90 3.15  20 3.15  19 3.15  91 3.15  32 3.15  30 3.15  31 3.15

 141  0.000  0.750  0.298-  82 3.15  93 3.15  23 3.15  22 3.15  49 3.15  94 3.15  26 3.15  35 3.15
                            33 3.15  34 3.15  38 3.15  36 3.15
 142  0.000  0.750  0.460-  94 3.15  26 3.15  85 3.15  38 3.15  36 3.15  25 3.15  51 3.15  95 3.15
                            29 3.15  37 3.15  41 3.15  39 3.15
 143  0.000  0.750  0.621-  95 3.15  29 3.15  88 3.15  41 3.15  39 3.15  28 3.15  53 3.15  96 3.15
                            32 3.15  40 3.15  44 3.15  42 3.15
 144  0.000  0.750  0.783-  91 3.15  96 3.15  32 3.15  31 3.15  55 3.15  44 3.15  42 3.15  43 3.15

 145  0.500  0.000  0.298-   1 3.15   9 3.15  83 3.15  82 3.15  10 3.15  12 3.15  86 3.15  50 3.15
                            93 3.15  49 3.15  52 3.15  94 3.15
 146  0.500  0.000  0.460-  12 3.15  86 3.15   3 3.15  52 3.15  94 3.15  13 3.15  85 3.15  15 3.15
                            89 3.15  51 3.15  54 3.15  95 3.15
 147  0.500  0.000  0.621-  15 3.15  89 3.15   5 3.15  54 3.15  95 3.15  16 3.15  88 3.15  18 3.15
                            92 3.15  53 3.15  56 3.15  96 3.15
 148  0.500  0.000  0.783-   7 3.15  18 3.15  92 3.15  91 3.15  19 3.15  56 3.15  96 3.15  55 3.15

 149  0.500  0.250  0.298-  10 3.15  21 3.15  50 3.15  49 3.15  22 3.15  24 3.15  52 3.15  59 3.15
                            57 3.15  58 3.15  62 3.15  60 3.15
 150  0.500  0.250  0.460-  24 3.15  52 3.15  13 3.15  62 3.15  60 3.15  51 3.15  25 3.15  27 3.15
                            54 3.15  61 3.15  65 3.15  63 3.15
 151  0.500  0.250  0.621-  27 3.15  54 3.15  16 3.15  65 3.15  63 3.15  53 3.15  28 3.15  30 3.15
                            56 3.15  64 3.15  68 3.15  66 3.15
 152  0.500  0.250  0.783-  19 3.15  30 3.15  56 3.15  55 3.15  31 3.15  68 3.15  66 3.15  67 3.15

 153  0.500  0.500  0.298-  22 3.15  33 3.15  59 3.15  58 3.15  34 3.15  36 3.15  62 3.15  71 3.15
                            69 3.15  70 3.15  74 3.15  72 3.15
 154  0.500  0.500  0.460-  36 3.15  62 3.15  25 3.15  74 3.15  72 3.15  61 3.15  37 3.15  39 3.15
                            65 3.15  73 3.15  77 3.15  75 3.15
 155  0.500  0.500  0.621-  39 3.15  65 3.15  28 3.15  77 3.15  75 3.15  64 3.15  40 3.15  42 3.15
                            68 3.15  76 3.15  80 3.15  78 3.15
 156  0.500  0.500  0.783-  31 3.15  42 3.15  68 3.15  67 3.15  43 3.15  80 3.15  78 3.15  79 3.15

 157  0.500  0.750  0.298-  34 3.15  45 3.15  71 3.15  70 3.15   1 3.15  46 3.15  74 3.15  83 3.15
                            81 3.15  82 3.15  86 3.15  84 3.15
 158  0.500  0.750  0.460-  46 3.15  74 3.15  37 3.15  86 3.15  84 3.15  73 3.15   3 3.15  47 3.15
                            77 3.15  85 3.15  89 3.15  87 3.15
 159  0.500  0.750  0.621-  47 3.15  77 3.15  40 3.15  89 3.15  87 3.15  76 3.15   5 3.15  48 3.15
                            80 3.15  88 3.15  92 3.15  90 3.15
 160  0.500  0.750  0.783-  43 3.15  48 3.15  80 3.15  79 3.15   7 3.15  92 3.15  90 3.15  91 3.15

 

IMPORTANT INFORMATION: All symmetrisations will be switched off!
NOSYMM: (Re-)initialisation of all symmetry stuff for point group C_1.


----------------------------------------------------------------------------------------

                                     Primitive cell                                     

  volume of cell :    4387.0346

  direct lattice vectors                    reciprocal lattice vectors
    -8.914756880  8.914756880  0.000000000     0.000000000  0.112173558  0.000000000
   -17.829513760  0.000000000  0.000000000    -0.056086779 -0.056086779  0.000000000
     0.000000000  0.000000000 27.600824368     0.000000000  0.000000000  0.036230802

  length of vectors
    12.607370085 17.829513760 27.600824368     0.112173558  0.079318684  0.036230802

  position of ions in fractional coordinates (direct lattice)
     0.250000085  0.000000000  0.298132001
     0.000000050  0.125000017  0.217384811
     0.250000085  0.000000000  0.459626390
     0.000000050  0.125000017  0.378879211
     0.250000085  0.000000000  0.621120789
     0.000000050  0.125000017  0.540373610
     0.250000085  0.000000000  0.782615189
     0.000000050  0.125000017  0.701867999
     0.250000085  0.124999983  0.217384811
     0.250000085  0.250000000  0.298132001
     0.000000050  0.375000017  0.217384811
     0.250000085  0.124999983  0.378879211
     0.250000085  0.250000000  0.459626390
     0.000000050  0.375000017  0.378879211
     0.250000085  0.124999983  0.540373610
     0.250000085  0.250000000  0.621120789
     0.000000050  0.375000017  0.540373610
     0.250000085  0.124999983  0.701867999
     0.250000085  0.250000000  0.782615189
     0.000000050  0.375000017  0.701867999
     0.250000085  0.374999983  0.217384811
     0.250000085  0.500000000  0.298132001
     0.000000050  0.625000017  0.217384811
     0.250000085  0.374999983  0.378879211
     0.250000085  0.500000000  0.459626390
     0.000000050  0.625000017  0.378879211
     0.250000085  0.374999983  0.540373610
     0.250000085  0.500000000  0.621120789
     0.000000050  0.625000017  0.540373610
     0.250000085  0.374999983  0.701867999
     0.250000085  0.500000000  0.782615189
     0.000000050  0.625000017  0.701867999
     0.250000085  0.624999983  0.217384811
     0.250000085  0.750000000  0.298132001
     0.000000050  0.875000017  0.217384811
     0.250000085  0.624999983  0.378879211
     0.250000085  0.750000000  0.459626390
     0.000000050  0.875000017  0.378879211
     0.250000085  0.624999983  0.540373610
     0.250000085  0.750000000  0.621120789
     0.000000050  0.875000017  0.540373610
     0.250000085  0.624999983  0.701867999
     0.250000085  0.750000000  0.782615189
     0.000000050  0.875000017  0.701867999
     0.250000085  0.874999983  0.217384811
     0.250000085  0.874999983  0.378879211
     0.250000085  0.874999983  0.540373610
     0.250000085  0.874999983  0.701867999
     0.750000085  0.000000000  0.298132001
     0.500000050  0.125000017  0.217384811
     0.750000085  0.000000000  0.459626390
     0.500000050  0.125000017  0.378879211
     0.750000085  0.000000000  0.621120789
     0.500000050  0.125000017  0.540373610
     0.750000085  0.000000000  0.782615189
     0.500000050  0.125000017  0.701867999
     0.750000085  0.124999983  0.217384811
     0.750000085  0.250000000  0.298132001
     0.500000050  0.375000017  0.217384811
     0.750000085  0.124999983  0.378879211
     0.750000085  0.250000000  0.459626390
     0.500000050  0.375000017  0.378879211
     0.750000085  0.124999983  0.540373610
     0.750000085  0.250000000  0.621120789
     0.500000050  0.375000017  0.540373610
     0.750000085  0.124999983  0.701867999
     0.750000085  0.250000000  0.782615189
     0.500000050  0.375000017  0.701867999
     0.750000085  0.374999983  0.217384811
     0.750000085  0.500000000  0.298132001
     0.500000050  0.625000017  0.217384811
     0.750000085  0.374999983  0.378879211
     0.750000085  0.500000000  0.459626390
     0.500000050  0.625000017  0.378879211
     0.750000085  0.374999983  0.540373610
     0.750000085  0.500000000  0.621120789
     0.500000050  0.625000017  0.540373610
     0.750000085  0.374999983  0.701867999
     0.750000085  0.500000000  0.782615189
     0.500000050  0.625000017  0.701867999
     0.750000085  0.624999983  0.217384811
     0.750000085  0.750000000  0.298132001
     0.500000050  0.875000017  0.217384811
     0.750000085  0.624999983  0.378879211
     0.750000085  0.750000000  0.459626390
     0.500000050  0.875000017  0.378879211
     0.750000085  0.624999983  0.540373610
     0.750000085  0.750000000  0.621120789
     0.500000050  0.875000017  0.540373610
     0.750000085  0.624999983  0.701867999
     0.750000085  0.750000000  0.782615189
     0.500000050  0.875000017  0.701867999
     0.750000085  0.874999983  0.217384811
     0.750000085  0.874999983  0.378879211
     0.750000085  0.874999983  0.540373610
     0.750000085  0.874999983  0.701867999
     0.250000085  0.000000000  0.217384811
     0.250000085  0.000000000  0.378879211
     0.250000085  0.000000000  0.540373610
     0.250000085  0.000000000  0.701867999
     0.250000085  0.250000000  0.217384811
     0.250000085  0.250000000  0.378879211
     0.250000085  0.250000000  0.540373610
     0.250000085  0.250000000  0.701867999
     0.250000085  0.500000000  0.217384811
     0.250000085  0.500000000  0.378879211
     0.250000085  0.500000000  0.540373610
     0.250000085  0.500000000  0.701867999
     0.250000085  0.750000000  0.217384811
     0.250000085  0.750000000  0.378879211
     0.250000085  0.750000000  0.540373610
     0.250000085  0.750000000  0.701867999
     0.750000085  0.000000000  0.217384811
     0.750000085  0.000000000  0.378879211
     0.750000085  0.000000000  0.540373610
     0.750000085  0.000000000  0.701867999
     0.750000085  0.250000000  0.217384811
     0.750000085  0.250000000  0.378879211
     0.750000085  0.250000000  0.540373610
     0.750000085  0.250000000  0.701867999
     0.750000085  0.500000000  0.217384811
     0.750000085  0.500000000  0.378879211
     0.750000085  0.500000000  0.540373610
     0.750000085  0.500000000  0.701867999
     0.750000085  0.750000000  0.217384811
     0.750000085  0.750000000  0.378879211
     0.750000085  0.750000000  0.540373610
     0.750000085  0.750000000  0.701867999
     0.000000050  0.000000000  0.298132001
     0.000000050  0.000000000  0.459626390
     0.000000050  0.000000000  0.621120789
     0.000000050  0.000000000  0.782615189
     0.000000050  0.250000000  0.298132001
     0.000000050  0.250000000  0.459626390
     0.000000050  0.250000000  0.621120789
     0.000000050  0.250000000  0.782615189
     0.000000050  0.500000000  0.298132001
     0.000000050  0.500000000  0.459626390
     0.000000050  0.500000000  0.621120789
     0.000000050  0.500000000  0.782615189
     0.000000050  0.750000000  0.298132001
     0.000000050  0.750000000  0.459626390
     0.000000050  0.750000000  0.621120789
     0.000000050  0.750000000  0.782615189
     0.500000050  0.000000000  0.298132001
     0.500000050  0.000000000  0.459626390
     0.500000050  0.000000000  0.621120789
     0.500000050  0.000000000  0.782615189
     0.500000050  0.250000000  0.298132001
     0.500000050  0.250000000  0.459626390
     0.500000050  0.250000000  0.621120789
     0.500000050  0.250000000  0.782615189
     0.500000050  0.500000000  0.298132001
     0.500000050  0.500000000  0.459626390
     0.500000050  0.500000000  0.621120789
     0.500000050  0.500000000  0.782615189
     0.500000050  0.750000000  0.298132001
     0.500000050  0.750000000  0.459626390
     0.500000050  0.750000000  0.621120789
     0.500000050  0.750000000  0.782615189

  ion indices of the primitive-cell ions
   primitive index   ion index
                 1           1
                 2           2
                 3           3
                 4           4
                 5           5
                 6           6
                 7           7
                 8           8
                 9           9
                10          10
                11          11
                12          12
                13          13
                14          14
                15          15
                16          16
                17          17
                18          18
                19          19
                20          20
                21          21
                22          22
                23          23
                24          24
                25          25
                26          26
                27          27
                28          28
                29          29
                30          30
                31          31
                32          32
                33          33
                34          34
                35          35
                36          36
                37          37
                38          38
                39          39
                40          40
                41          41
                42          42
                43          43
                44          44
                45          45
                46          46
                47          47
                48          48
                49          49
                50          50
                51          51
                52          52
                53          53
                54          54
                55          55
                56          56
                57          57
                58          58
                59          59
                60          60
                61          61
                62          62
                63          63
                64          64
                65          65
                66          66
                67          67
                68          68
                69          69
                70          70
                71          71
                72          72
                73          73
                74          74
                75          75
                76          76
                77          77
                78          78
                79          79
                80          80
                81          81
                82          82
                83          83
                84          84
                85          85
                86          86
                87          87
                88          88
                89          89
                90          90
                91          91
                92          92
                93          93
                94          94
                95          95
                96          96
                97          97
                98          98
                99          99
               100         100
               101         101
               102         102
               103         103
               104         104
               105         105
               106         106
               107         107
               108         108
               109         109
               110         110
               111         111
               112         112
               113         113
               114         114
               115         115
               116         116
               117         117
               118         118
               119         119
               120         120
               121         121
               122         122
               123         123
               124         124
               125         125
               126         126
               127         127
               128         128
               129         129
               130         130
               131         131
               132         132
               133         133
               134         134
               135         135
               136         136
               137         137
               138         138
               139         139
               140         140
               141         141
               142         142
               143         143
               144         144
               145         145
               146         146
               147         147
               148         148
               149         149
               150         150
               151         151
               152         152
               153         153
               154         154
               155         155
               156         156
               157         157
               158         158
               159         159
               160         160

----------------------------------------------------------------------------------------

 
 -----------------------------------------------------------------------------
|                                                                             |
|           W    W    AA    RRRRR   N    N  II  N    N   GGGG   !!!           |
|           W    W   A  A   R    R  NN   N  II  NN   N  G    G  !!!           |
|           W    W  A    A  R    R  N N  N  II  N N  N  G       !!!           |
|           W WW W  AAAAAA  RRRRR   N  N N  II  N  N N  G  GGG   !            |
|           WW  WW  A    A  R   R   N   NN  II  N   NN  G    G                |
|           W    W  A    A  R    R  N    N  II  N    N   GGGG   !!!           |
|                                                                             |
|     The requested file  could not be found or opened for reading            |
|     k-point information. Automatic k-point generation is used as a          |
|     fallback, which may lead to unwanted results.                           |
|                                                                             |
 -----------------------------------------------------------------------------

 

Automatic generation of k-mesh.
 Grid dimensions derived from KSPACING:
 generate k-points for:    2    1    1

 Generating k-lattice:

  Cartesian coordinates                     Fractional coordinates (reciprocal lattice)
     0.000000000  0.056086779  0.000000000     0.500000000  0.000000000  0.000000000
    -0.056086779 -0.056086779  0.000000000     0.000000000  1.000000000  0.000000000
     0.000000000  0.000000000  0.036230802     0.000000000  0.000000000  1.000000000

  Length of vectors
     0.056086779  0.079318684  0.036230802

  Shift w.r.t. Gamma in fractional coordinates (k-lattice)
     0.000000000  0.000000000  0.000000000

 
 Subroutine IBZKPT returns following result:
 ===========================================
 
 Found      2 irreducible k-points:
 
 Following reciprocal coordinates:
            Coordinates               Weight
  0.000000  0.000000  0.000000      1.000000
  0.500000  0.000000  0.000000      1.000000
 
 Following cartesian coordinates:
            Coordinates               Weight
  0.000000  0.000000  0.000000      1.000000
  0.000000  0.056087  0.000000      1.000000
 


--------------------------------------------------------------------------------------------------------




 Dimension of arrays:
   k-points           NKPTS =      2   k-points in BZ     NKDIM =      2   number of bands    NBANDS=    344
   number of dos      NEDOS =    301   number of ions     NIONS =    160
   non local maximal  LDIM  =      4   non local SUM 2l+1 LMDIM =      8
   total plane-waves  NPLWV = 806400
   max r-space proj   IRMAX =   2075   max aug-charges    IRDMAX=   9148
   dimension x,y,z NGX =    64 NGY =   90 NGZ =  140
   dimension x,y,z NGXF=   128 NGYF=  180 NGZF=  280
   support grid    NGXF=   128 NGYF=  180 NGZF=  280
   ions per type =              96  32  32
   NGX,Y,Z   is equivalent  to a cutoff of   8.44,  8.39,  8.43 a.u.
   NGXF,Y,Z  is equivalent  to a cutoff of  16.88, 16.78, 16.87 a.u.

 SYSTEM =  unknown system                          
 POSCAR =  Na  O Cl                                

 Startparameter for this run:
   NWRITE =      1    write-flag & timer
   PREC   = normal    normal or accurate (medium, high low for compatibility)
   ISTART =      0    job   : 0-new  1-cont  2-samecut
   ICHARG =      2    charge: 1-file 2-atom 10-const
   ISPIN  =      1    spin polarized calculation?
   LNONCOLLINEAR =      F non collinear calculations
   LSORBIT =      F    spin-orbit coupling
   INIWAV =      1    electr: 0-lowe 1-rand  2-diag
   LASPH  =      T    aspherical Exc in radial PAW
 Electronic Relaxation 1
   ENCUT  =  400.0 eV  29.40 Ry    5.42 a.u.  20.56 29.08 45.01*2*pi/ulx,y,z
   ENINI  =  400.0     initial cutoff
   ENAUG  =  605.4 eV  augmentation charge cutoff
   NELM   =    150;   NELMIN=  2; NELMDL=  0     # of ELM steps 
   EDIFF  = 0.1E-07   stopping-criterion for ELM
   LREAL  =      T    real-space projection
   NLSPLINE    = F    spline interpolate recip. space projectors
   LCOMPAT=      F    compatible to vasp.4.4
   GGA_COMPAT  = T    GGA compatible to vasp.4.4-vasp.4.6
   LMAXPAW     = -100 max onsite density
   LMAXMIX     =    6 max onsite mixed and CHGCAR
   VOSKOWN=      0    Vosko Wilk Nusair interpolation
   ROPT   =   -0.00050  -0.00050  -0.00050
 Ionic relaxation
   EDIFFG = -.1E-01   stopping-criterion for IOM
   NSW    =    800    number of steps for IOM
   NBLOCK =      1;   KBLOCK =    800    inner block; outer block 
   IBRION =      2    ionic relax: 0-MD 1-quasi-New 2-CG
   NFREE  =      1    steps in history (QN), initial steepest desc. (CG)
   ISIF   =      2    stress and relaxation
   IWAVPR =     11    prediction:  0-non 1-charg 2-wave 3-comb
   ISYM   =      0    0-nonsym 1-usesym 2-fastsym
   LCORR  =      T    Harris-Foulkes like correction to forces

   POTIM  = 0.5000    time-step for ionic-motion
   TEIN   =    0.0    initial temperature
   TEBEG  =    0.0;   TEEND  =   0.0 temperature during run
   SMASS  =  -3.00    Nose mass-parameter (am)
   estimated Nose-frequenzy (Omega)   =  0.10E-29 period in steps = 0.13E+47 mass=  -0.363E-26a.u.
   SCALEE = 1.0000    scale energy and forces
   NPACO  =    256;   APACO  = 16.0  distance and # of slots for P.C.
   PSTRESS=    0.0 pullay stress

  Mass of Ions in am
   POMASS =  22.99 16.00 35.45
  Ionic Valenz
   ZVAL   =   1.00  6.00  7.00
  Atomic Wigner-Seitz radii
   RWIGS  =  -1.00 -1.00 -1.00
  virtual crystal weights 
   VCA    =   1.00  1.00  1.00
   NELECT =     512.0000    total number of electrons
   NUPDOWN=      -1.0000    fix difference up-down

 DOS related values:
   EMIN   =  10.00;   EMAX   =-10.00  energy-range for DOS
   EFERMI =   0.00
   ISMEAR =     0;   SIGMA  =   0.10  broadening in eV -4-tet -1-fermi 0-gaus

 Electronic relaxation 2 (details)
   IALGO  =     68    algorithm
   LDIAG  =      T    sub-space diagonalisation (order eigenvalues)
   LSUBROT=      F    optimize rotation matrix (better conditioning)
   TURBO    =      0    0=normal 1=particle mesh
   IRESTART =      0    0=no restart 2=restart with 2 vectors
   NREBOOT  =      0    no. of reboots
   NMIN     =      0    reboot dimension
   EREF     =   0.00    reference energy to select bands
   IMIX   =      4    mixing-type and parameters
     AMIX     =   0.40;   BMIX     =  1.00
     AMIX_MAG =   1.60;   BMIX_MAG =  1.00
     AMIN     =   0.10
     WC   =   100.;   INIMIX=   1;  MIXPRE=   1;  MAXMIX= -45

 Intra band minimization:
   WEIMIN = 0.0010     energy-eigenvalue tresh-hold
   EBREAK =  0.73E-11  absolut break condition
   DEPER  =   0.30     relativ break condition  

   TIME   =   0.40     timestep for ELM

  volume/ion in A,a.u.               =      27.42       185.03
  Fermi-wavevector in a.u.,A,eV,Ry     =   0.800033  1.511843  8.708443  0.640052
  Thomas-Fermi vector in A             =   1.907251
 
 Write flags
   LWAVE        =      F    write WAVECAR
   LDOWNSAMPLE  =      F    k-point downsampling of WAVECAR
   LCHARG       =      F    write CHGCAR
   LVTOT        =      F    write LOCPOT, total local potential
   LVHAR        =      F    write LOCPOT, Hartree potential only
   LELF         =      F    write electronic localiz. function (ELF)
   LORBIT       =      0    0 simple, 1 ext, 2 COOP (PROOUT), +10 PAW based schemes


 Dipole corrections
   LMONO  =      F    monopole corrections only (constant potential shift)
   LDIPOL =      T    correct potential (dipole corrections)
   IDIPOL =      3    1-x, 2-y, 3-z, 4-all directions 
   EPSILON=  1.0000000 bulk dielectric constant

 Exchange correlation treatment:
   GGA     =    PE    GGA type
   LEXCH   =     8    internal setting for exchange type
   VOSKOWN=      0    Vosko Wilk Nusair interpolation
   LHFCALC =     F    Hartree Fock is set to
   LHFONE  =     F    Hartree Fock one center treatment
   AEXX    =    0.0000 exact exchange contribution

 Linear response parameters
   LEPSILON=     F    determine dielectric tensor
   LRPA    =     F    only Hartree local field effects (RPA)
   LNABLA  =     F    use nabla operator in PAW spheres
   LVEL    =     F    velocity operator in full k-point grid
   LINTERFAST=   F  fast interpolation
   KINTER  =     0    interpolate to denser k-point grid
   CSHIFT  =0.1000    complex shift for real part using Kramers Kronig
   OMEGAMAX=  -1.0    maximum frequency
   DEG_THRESHOLD= 0.2000000E-02 threshold for treating states as degnerate
   RTIME   =   -0.100 relaxation time in fs
  (WPLASMAI=    0.000 imaginary part of plasma frequency in eV, 0.658/RTIME)
   DFIELD  = 0.0000000 0.0000000 0.0000000 field for delta impulse in time
 
 Orbital magnetization related:
   ORBITALMAG=     F  switch on orbital magnetization
   LCHIMAG   =     F  perturbation theory with respect to B field
   DQ        =  0.001000  dq finite difference perturbation B field
   LLRAUG    =     F  two centre corrections for induced B field



--------------------------------------------------------------------------------------------------------


 conjugate gradient relaxation of ions
 charge density and potential will be updated during run
 non-spin polarized calculation
 RMM-DIIS sequential band-by-band and
  variant of blocked Davidson during initial phase
 perform sub-space diagonalisation
    before iterative eigenvector-optimisation
 modified Broyden-mixing scheme, WC =      100.0
 initial mixing is a Kerker type mixing with AMIX =  0.4000 and BMIX =      1.0000
 Hartree-type preconditioning will be used
 using additional bands           88
 real space projection scheme for non local part
 use partial core corrections
 calculate Harris-corrections to forces 
   (improved forces if not selfconsistent)
 use gradient corrections 
 use of overlap-Matrix (Vanderbilt PP)
 Gauss-broadening in eV      SIGMA  =   0.10


--------------------------------------------------------------------------------------------------------


  energy-cutoff  :      400.00
  volume of cell :     4387.03
      direct lattice vectors                 reciprocal lattice vectors
    -8.914756880  8.914756880  0.000000000     0.000000000  0.112173558  0.000000000
   -17.829513760  0.000000000  0.000000000    -0.056086779 -0.056086779  0.000000000
     0.000000000  0.000000000 27.600824368     0.000000000  0.000000000  0.036230802

  length of vectors
    12.607370085 17.829513760 27.600824368     0.112173558  0.079318684  0.036230802


 
 k-points in units of 2pi/SCALE and weight: read from INCAR                         
   0.00000000  0.00000000  0.00000000       0.500
   0.00000000  0.05608678  0.00000000       0.500
 
 k-points in reciprocal lattice and weights: read from INCAR                         
   0.00000000  0.00000000  0.00000000       0.500
   0.50000000  0.00000000  0.00000000       0.500
 
 position of ions in fractional coordinates (direct lattice) 
   0.25000009  0.00000000  0.29813200
   0.00000005  0.12500002  0.21738481
   0.25000009  0.00000000  0.45962639
   0.00000005  0.12500002  0.37887921
   0.25000009  0.00000000  0.62112079
   0.00000005  0.12500002  0.54037361
   0.25000009  0.00000000  0.78261519
   0.00000005  0.12500002  0.70186800
   0.25000009  0.12499998  0.21738481
   0.25000009  0.25000000  0.29813200
   0.00000005  0.37500002  0.21738481
   0.25000009  0.12499998  0.37887921
   0.25000009  0.25000000  0.45962639
   0.00000005  0.37500002  0.37887921
   0.25000009  0.12499998  0.54037361
   0.25000009  0.25000000  0.62112079
   0.00000005  0.37500002  0.54037361
   0.25000009  0.12499998  0.70186800
   0.25000009  0.25000000  0.78261519
   0.00000005  0.37500002  0.70186800
   0.25000009  0.37499998  0.21738481
   0.25000009  0.50000000  0.29813200
   0.00000005  0.62500002  0.21738481
   0.25000009  0.37499998  0.37887921
   0.25000009  0.50000000  0.45962639
   0.00000005  0.62500002  0.37887921
   0.25000009  0.37499998  0.54037361
   0.25000009  0.50000000  0.62112079
   0.00000005  0.62500002  0.54037361
   0.25000009  0.37499998  0.70186800
   0.25000009  0.50000000  0.78261519
   0.00000005  0.62500002  0.70186800
   0.25000009  0.62499998  0.21738481
   0.25000009  0.75000000  0.29813200
   0.00000005  0.87500002  0.21738481
   0.25000009  0.62499998  0.37887921
   0.25000009  0.75000000  0.45962639
   0.00000005  0.87500002  0.37887921
   0.25000009  0.62499998  0.54037361
   0.25000009  0.75000000  0.62112079
   0.00000005  0.87500002  0.54037361
   0.25000009  0.62499998  0.70186800
   0.25000009  0.75000000  0.78261519
   0.00000005  0.87500002  0.70186800
   0.25000009  0.87499998  0.21738481
   0.25000009  0.87499998  0.37887921
   0.25000009  0.87499998  0.54037361
   0.25000009  0.87499998  0.70186800
   0.75000009  0.00000000  0.29813200
   0.50000005  0.12500002  0.21738481
   0.75000009  0.00000000  0.45962639
   0.50000005  0.12500002  0.37887921
   0.75000009  0.00000000  0.62112079
   0.50000005  0.12500002  0.54037361
   0.75000009  0.00000000  0.78261519
   0.50000005  0.12500002  0.70186800
   0.75000009  0.12499998  0.21738481
   0.75000009  0.25000000  0.29813200
   0.50000005  0.37500002  0.21738481
   0.75000009  0.12499998  0.37887921
   0.75000009  0.25000000  0.45962639
   0.50000005  0.37500002  0.37887921
   0.75000009  0.12499998  0.54037361
   0.75000009  0.25000000  0.62112079
   0.50000005  0.37500002  0.54037361
   0.75000009  0.12499998  0.70186800
   0.75000009  0.25000000  0.78261519
   0.50000005  0.37500002  0.70186800
   0.75000009  0.37499998  0.21738481
   0.75000009  0.50000000  0.29813200
   0.50000005  0.62500002  0.21738481
   0.75000009  0.37499998  0.37887921
   0.75000009  0.50000000  0.45962639
   0.50000005  0.62500002  0.37887921
   0.75000009  0.37499998  0.54037361
   0.75000009  0.50000000  0.62112079
   0.50000005  0.62500002  0.54037361
   0.75000009  0.37499998  0.70186800
   0.75000009  0.50000000  0.78261519
   0.50000005  0.62500002  0.70186800
   0.75000009  0.62499998  0.21738481
   0.75000009  0.75000000  0.29813200
   0.50000005  0.87500002  0.21738481
   0.75000009  0.62499998  0.37887921
   0.75000009  0.75000000  0.45962639
   0.50000005  0.87500002  0.37887921
   0.75000009  0.62499998  0.54037361
   0.75000009  0.75000000  0.62112079
   0.50000005  0.87500002  0.54037361
   0.75000009  0.62499998  0.70186800
   0.75000009  0.75000000  0.78261519
   0.50000005  0.87500002  0.70186800
   0.75000009  0.87499998  0.21738481
   0.75000009  0.87499998  0.37887921
   0.75000009  0.87499998  0.54037361
   0.75000009  0.87499998  0.70186800
   0.25000009  0.00000000  0.21738481
   0.25000009  0.00000000  0.37887921
   0.25000009  0.00000000  0.54037361
   0.25000009  0.00000000  0.70186800
   0.25000009  0.25000000  0.21738481
   0.25000009  0.25000000  0.37887921
   0.25000009  0.25000000  0.54037361
   0.25000009  0.25000000  0.70186800
   0.25000009  0.50000000  0.21738481
   0.25000009  0.50000000  0.37887921
   0.25000009  0.50000000  0.54037361
   0.25000009  0.50000000  0.70186800
   0.25000009  0.75000000  0.21738481
   0.25000009  0.75000000  0.37887921
   0.25000009  0.75000000  0.54037361
   0.25000009  0.75000000  0.70186800
   0.75000009  0.00000000  0.21738481
   0.75000009  0.00000000  0.37887921
   0.75000009  0.00000000  0.54037361
   0.75000009  0.00000000  0.70186800
   0.75000009  0.25000000  0.21738481
   0.75000009  0.25000000  0.37887921
   0.75000009  0.25000000  0.54037361
   0.75000009  0.25000000  0.70186800
   0.75000009  0.50000000  0.21738481
   0.75000009  0.50000000  0.37887921
   0.75000009  0.50000000  0.54037361
   0.75000009  0.50000000  0.70186800
   0.75000009  0.75000000  0.21738481
   0.75000009  0.75000000  0.37887921
   0.75000009  0.75000000  0.54037361
   0.75000009  0.75000000  0.70186800
   0.00000005  0.00000000  0.29813200
   0.00000005  0.00000000  0.45962639
   0.00000005  0.00000000  0.62112079
   0.00000005  0.00000000  0.78261519
   0.00000005  0.25000000  0.29813200
   0.00000005  0.25000000  0.45962639
   0.00000005  0.25000000  0.62112079
   0.00000005  0.25000000  0.78261519
   0.00000005  0.50000000  0.29813200
   0.00000005  0.50000000  0.45962639
   0.00000005  0.50000000  0.62112079
   0.00000005  0.50000000  0.78261519
   0.00000005  0.75000000  0.29813200
   0.00000005  0.75000000  0.45962639
   0.00000005  0.75000000  0.62112079
   0.00000005  0.75000000  0.78261519
   0.50000005  0.00000000  0.29813200
   0.50000005  0.00000000  0.45962639
   0.50000005  0.00000000  0.62112079
   0.50000005  0.00000000  0.78261519
   0.50000005  0.25000000  0.29813200
   0.50000005  0.25000000  0.45962639
   0.50000005  0.25000000  0.62112079
   0.50000005  0.25000000  0.78261519
   0.50000005  0.50000000  0.29813200
   0.50000005  0.50000000  0.45962639
   0.50000005  0.50000000  0.62112079
   0.50000005  0.50000000  0.78261519
   0.50000005  0.75000000  0.29813200
   0.50000005  0.75000000  0.45962639
   0.50000005  0.75000000  0.62112079
   0.50000005  0.75000000  0.78261519
 
 position of ions in cartesian coordinates  (Angst):
  -2.22868998  2.22868998  8.22868900
  -2.22868998  0.00000045  6.00000000
  -2.22868998  2.22868998 12.68606727
  -2.22868998  0.00000045 10.45737855
  -2.22868998  2.22868998 17.14344582
  -2.22868998  0.00000045 14.91475710
  -2.22868998  2.22868998 21.60082437
  -2.22868998  0.00000045 19.37213537
  -4.45737889  2.22868998  6.00000000
  -6.68606842  2.22868998  8.22868900
  -6.68606842  0.00000045  6.00000000
  -4.45737889  2.22868998 10.45737855
  -6.68606842  2.22868998 12.68606727
  -6.68606842  0.00000045 10.45737855
  -4.45737889  2.22868998 14.91475710
  -6.68606842  2.22868998 17.14344582
  -6.68606842  0.00000045 14.91475710
  -4.45737889  2.22868998 19.37213537
  -6.68606842  2.22868998 21.60082437
  -6.68606842  0.00000045 19.37213537
  -8.91475733  2.22868998  6.00000000
 -11.14344686  2.22868998  8.22868900
 -11.14344686  0.00000045  6.00000000
  -8.91475733  2.22868998 10.45737855
 -11.14344686  2.22868998 12.68606727
 -11.14344686  0.00000045 10.45737855
  -8.91475733  2.22868998 14.91475710
 -11.14344686  2.22868998 17.14344582
 -11.14344686  0.00000045 14.91475710
  -8.91475733  2.22868998 19.37213537
 -11.14344686  2.22868998 21.60082437
 -11.14344686  0.00000045 19.37213537
 -13.37213577  2.22868998  6.00000000
 -15.60082530  2.22868998  8.22868900
 -15.60082530  0.00000045  6.00000000
 -13.37213577  2.22868998 10.45737855
 -15.60082530  2.22868998 12.68606727
 -15.60082530  0.00000045 10.45737855
 -13.37213577  2.22868998 14.91475710
 -15.60082530  2.22868998 17.14344582
 -15.60082530  0.00000045 14.91475710
 -13.37213577  2.22868998 19.37213537
 -15.60082530  2.22868998 21.60082437
 -15.60082530  0.00000045 19.37213537
 -17.82951421  2.22868998  6.00000000
 -17.82951421  2.22868998 10.45737855
 -17.82951421  2.22868998 14.91475710
 -17.82951421  2.22868998 19.37213537
  -6.68606842  6.68606842  8.22868900
  -6.68606842  4.45737889  6.00000000
  -6.68606842  6.68606842 12.68606727
  -6.68606842  4.45737889 10.45737855
  -6.68606842  6.68606842 17.14344582
  -6.68606842  4.45737889 14.91475710
  -6.68606842  6.68606842 21.60082437
  -6.68606842  4.45737889 19.37213537
  -8.91475733  6.68606842  6.00000000
 -11.14344686  6.68606842  8.22868900
 -11.14344686  4.45737889  6.00000000
  -8.91475733  6.68606842 10.45737855
 -11.14344686  6.68606842 12.68606727
 -11.14344686  4.45737889 10.45737855
  -8.91475733  6.68606842 14.91475710
 -11.14344686  6.68606842 17.14344582
 -11.14344686  4.45737889 14.91475710
  -8.91475733  6.68606842 19.37213537
 -11.14344686  6.68606842 21.60082437
 -11.14344686  4.45737889 19.37213537
 -13.37213577  6.68606842  6.00000000
 -15.60082530  6.68606842  8.22868900
 -15.60082530  4.45737889  6.00000000
 -13.37213577  6.68606842 10.45737855
 -15.60082530  6.68606842 12.68606727
 -15.60082530  4.45737889 10.45737855
 -13.37213577  6.68606842 14.91475710
 -15.60082530  6.68606842 17.14344582
 -15.60082530  4.45737889 14.91475710
 -13.37213577  6.68606842 19.37213537
 -15.60082530  6.68606842 21.60082437
 -15.60082530  4.45737889 19.37213537
 -17.82951421  6.68606842  6.00000000
 -20.05820374  6.68606842  8.22868900
 -20.05820374  4.45737889  6.00000000
 -17.82951421  6.68606842 10.45737855
 -20.05820374  6.68606842 12.68606727
 -20.05820374  4.45737889 10.45737855
 -17.82951421  6.68606842 14.91475710
 -20.05820374  6.68606842 17.14344582
 -20.05820374  4.45737889 14.91475710
 -17.82951421  6.68606842 19.37213537
 -20.05820374  6.68606842 21.60082437
 -20.05820374  4.45737889 19.37213537
 -22.28689265  6.68606842  6.00000000
 -22.28689265  6.68606842 10.45737855
 -22.28689265  6.68606842 14.91475710
 -22.28689265  6.68606842 19.37213537
  -2.22868998  2.22868998  6.00000000
  -2.22868998  2.22868998 10.45737855
  -2.22868998  2.22868998 14.91475710
  -2.22868998  2.22868998 19.37213537
  -6.68606842  2.22868998  6.00000000
  -6.68606842  2.22868998 10.45737855
  -6.68606842  2.22868998 14.91475710
  -6.68606842  2.22868998 19.37213537
 -11.14344686  2.22868998  6.00000000
 -11.14344686  2.22868998 10.45737855
 -11.14344686  2.22868998 14.91475710
 -11.14344686  2.22868998 19.37213537
 -15.60082530  2.22868998  6.00000000
 -15.60082530  2.22868998 10.45737855
 -15.60082530  2.22868998 14.91475710
 -15.60082530  2.22868998 19.37213537
  -6.68606842  6.68606842  6.00000000
  -6.68606842  6.68606842 10.45737855
  -6.68606842  6.68606842 14.91475710
  -6.68606842  6.68606842 19.37213537
 -11.14344686  6.68606842  6.00000000
 -11.14344686  6.68606842 10.45737855
 -11.14344686  6.68606842 14.91475710
 -11.14344686  6.68606842 19.37213537
 -15.60082530  6.68606842  6.00000000
 -15.60082530  6.68606842 10.45737855
 -15.60082530  6.68606842 14.91475710
 -15.60082530  6.68606842 19.37213537
 -20.05820374  6.68606842  6.00000000
 -20.05820374  6.68606842 10.45737855
 -20.05820374  6.68606842 14.91475710
 -20.05820374  6.68606842 19.37213537
  -0.00000045  0.00000045  8.22868900
  -0.00000045  0.00000045 12.68606727
  -0.00000045  0.00000045 17.14344582
  -0.00000045  0.00000045 21.60082437
  -4.45737889  0.00000045  8.22868900
  -4.45737889  0.00000045 12.68606727
  -4.45737889  0.00000045 17.14344582
  -4.45737889  0.00000045 21.60082437
  -8.91475733  0.00000045  8.22868900
  -8.91475733  0.00000045 12.68606727
  -8.91475733  0.00000045 17.14344582
  -8.91475733  0.00000045 21.60082437
 -13.37213577  0.00000045  8.22868900
 -13.37213577  0.00000045 12.68606727
 -13.37213577  0.00000045 17.14344582
 -13.37213577  0.00000045 21.60082437
  -4.45737889  4.45737889  8.22868900
  -4.45737889  4.45737889 12.68606727
  -4.45737889  4.45737889 17.14344582
  -4.45737889  4.45737889 21.60082437
  -8.91475733  4.45737889  8.22868900
  -8.91475733  4.45737889 12.68606727
  -8.91475733  4.45737889 17.14344582
  -8.91475733  4.45737889 21.60082437
 -13.37213577  4.45737889  8.22868900
 -13.37213577  4.45737889 12.68606727
 -13.37213577  4.45737889 17.14344582
 -13.37213577  4.45737889 21.60082437
 -17.82951421  4.45737889  8.22868900
 -17.82951421  4.45737889 12.68606727
 -17.82951421  4.45737889 17.14344582
 -17.82951421  4.45737889 21.60082437
 


--------------------------------------------------------------------------------------------------------


 k-point   1 :   0.0000 0.0000 0.0000  plane waves:   79659
 k-point   2 :   0.5000 0.0000 0.0000  plane waves:   79508

 maximum and minimum number of plane-waves per node :      5338     5273

 maximum number of plane-waves:     79659
 maximum index in each direction: 
   IXMAX=   20   IYMAX=   29   IZMAX=   45
   IXMIN=  -21   IYMIN=  -29   IZMIN=  -45


 real space projection operators:
  total allocation   :      11440.06 KBytes
  max/ min on nodes  :       1121.34        461.55


 parallel 3D FFT for wavefunctions:
    minimum data exchange during FFTs selected (reduces bandwidth)
 parallel 3D FFT for charge:
    minimum data exchange during FFTs selected (reduces bandwidth)


 total amount of memory used by VASP MPI-rank0    58268. kBytes
=======================================================================

   base      :      30000. kBytes
   nonlr-proj:       6889. kBytes
   fftplans  :       4926. kBytes
   grid      :       9012. kBytes
   one-center:         33. kBytes
   wavefun   :       7408. kBytes
 
     INWAV:  cpu time    0.0001: real time    0.0001
 Broyden mixing: mesh for mixing (old mesh)
   NGX = 41   NGY = 59   NGZ = 91
  (NGX  =128   NGY  =180   NGZ  =280)
  gives a total of 220129 points

 initial charge density was supplied:
 charge density of overlapping atoms calculated
 number of electron     512.0000000 magnetization 
 keeping initial charge density in first step


--------------------------------------------------------------------------------------------------------


 Maximum index for non-local projection operator          216
 Maximum index for augmentation-charges          707 (set IRDMAX)


--------------------------------------------------------------------------------------------------------


 First call to EWALD:  gamma=   0.108
 Maximum number of real-space cells 5x 3x 2
 Maximum number of reciprocal cells 2x 3x 4

    FEWALD:  cpu time    0.0048: real time    0.0048


--------------------------------------- Iteration      1(   1)  ---------------------------------------


    POTLOK:  cpu time    0.0619: real time    0.0666
    SETDIJ:  cpu time    0.0849: real time    0.0856
     EDDAV:  cpu time    3.4278: real time    3.4837
       DOS:  cpu time    0.0026: real time    0.0030
    --------------------------------------------
      LOOP:  cpu time    3.5772: real time    3.6388

 eigenvalue-minimisations  :  1432
 total energy-change (2. order) : 0.4246349E+04  (-0.1548292E+05)
 number of electron     512.0000000 magnetization 
 augmentation part      512.0000000 magnetization 

 DIPCOR: dipole corrections for dipol
 direction  3 min pos   280,
 dipolmoment           0.000000      0.000000      0.009349 electrons x Angstroem
 Tr[quadrupol]    -22275.770921

 energy correction for charged system         0.000000 eV
 dipol+quadrupol energy correction           -0.000002 eV
 added-field ion interaction         -0.019464 eV  (added to PSCEN)


 Free energy of the ion-electron system (eV)
  ---------------------------------------------------
  alpha Z        PSCENC =        -6.06082711
  Ewald energy   TEWEN  =     26346.76587164
  -Hartree energ DENC   =    -51244.38893002
  -exchange      EXHF   =         0.00000000
  -V(xc)+E(xc)   XCENC  =     -1990.06165094
  PAW double counting   =     25326.51111861   -21786.89270365
  entropy T*S    EENTRO =        -0.16125135
  eigenvalues    EBANDS =       162.09909763
  atomic energy  EATOM  =     27438.53791910
  Solvation  Ediel_sol  =         0.00000000
  ---------------------------------------------------
  free energy    TOTEN  =      4246.34864390 eV

  energy without entropy =     4246.50989525  energy(sigma->0) =     4246.42926958


--------------------------------------------------------------------------------------------------------




--------------------------------------- Iteration      1(   2)  ---------------------------------------


     EDDAV:  cpu time    4.4242: real time    4.4276
       DOS:  cpu time    0.0011: real time    0.0013
    --------------------------------------------
      LOOP:  cpu time    4.4253: real time    4.4289

 eigenvalue-minimisations  :  1832
 total energy-change (2. order) :-0.3910034E+04  (-0.3758165E+04)
 number of electron     512.0000000 magnetization 
 augmentation part      512.0000000 magnetization 

 DIPCOR: dipole corrections for dipol
 direction  3 min pos   280,
 dipolmoment           0.000000      0.000000      0.009349 electrons x Angstroem
 Tr[quadrupol]    -22275.770921

 energy correction for charged system         0.000000 eV
 dipol+quadrupol energy correction           -0.000002 eV
 added-field ion interaction         -0.019464 eV  (added to PSCEN)


 Free energy of the ion-electron system (eV)
  ---------------------------------------------------
  alpha Z        PSCENC =        -6.06082711
  Ewald energy   TEWEN  =     26346.76587164
  -Hartree energ DENC   =    -51244.38893002
  -exchange      EXHF   =         0.00000000
  -V(xc)+E(xc)   XCENC  =     -1990.06165094
  PAW double counting   =     25326.51111861   -21786.89270365
  entropy T*S    EENTRO =        -0.00000000
  eigenvalues    EBANDS =     -3748.09637852
  atomic energy  EATOM  =     27438.53791910
  Solvation  Ediel_sol  =         0.00000000
  ---------------------------------------------------
  free energy    TOTEN  =       336.31441911 eV

  energy without entropy =      336.31441911  energy(sigma->0) =      336.31441911


--------------------------------------------------------------------------------------------------------




--------------------------------------- Iteration      1(   3)  ---------------------------------------


     EDDAV:  cpu time    4.3055: real time    4.3058
       DOS:  cpu time    0.0011: real time    0.0011
    --------------------------------------------
      LOOP:  cpu time    4.3066: real time    4.3069

 eigenvalue-minimisations  :  1960
 total energy-change (2. order) :-0.1040953E+04  (-0.1034731E+04)
 number of electron     512.0000000 magnetization 
 augmentation part      512.0000000 magnetization 

 DIPCOR: dipole corrections for dipol
 direction  3 min pos   280,
 dipolmoment           0.000000      0.000000      0.009349 electrons x Angstroem
 Tr[quadrupol]    -22275.770921

 energy correction for charged system         0.000000 eV
 dipol+quadrupol energy correction           -0.000002 eV
 added-field ion interaction         -0.019464 eV  (added to PSCEN)


 Free energy of the ion-electron system (eV)
  ---------------------------------------------------
  alpha Z        PSCENC =        -6.06082711
  Ewald energy   TEWEN  =     26346.76587164
  -Hartree energ DENC   =    -51244.38893002
  -exchange      EXHF   =         0.00000000
  -V(xc)+E(xc)   XCENC  =     -1990.06165094
  PAW double counting   =     25326.51111861   -21786.89270365
  entropy T*S    EENTRO =        -0.00000000
  eigenvalues    EBANDS =     -4789.04949518
  atomic energy  EATOM  =     27438.53791910
  Solvation  Ediel_sol  =         0.00000000
  ---------------------------------------------------
  free energy    TOTEN  =      -704.63869755 eV

  energy without entropy =     -704.63869755  energy(sigma->0) =     -704.63869755


--------------------------------------------------------------------------------------------------------




--------------------------------------- Iteration      1(   4)  ---------------------------------------


     EDDAV:  cpu time    3.6799: real time    3.6801
       DOS:  cpu time    0.0014: real time    0.0014
    --------------------------------------------
      LOOP:  cpu time    3.6813: real time    3.6815

 eigenvalue-minimisations  :  1616
 total energy-change (2. order) :-0.3165218E+02  (-0.3156270E+02)
 number of electron     512.0000000 magnetization 
 augmentation part      512.0000000 magnetization 

 DIPCOR: dipole corrections for dipol
 direction  3 min pos   280,
 dipolmoment           0.000000      0.000000      0.009349 electrons x Angstroem
 Tr[quadrupol]    -22275.770921

 energy correction for charged system         0.000000 eV
 dipol+quadrupol energy correction           -0.000002 eV
 added-field ion interaction         -0.019464 eV  (added to PSCEN)


 Free energy of the ion-electron system (eV)
  ---------------------------------------------------
  alpha Z        PSCENC =        -6.06082711
  Ewald energy   TEWEN  =     26346.76587164
  -Hartree energ DENC   =    -51244.38893002
  -exchange      EXHF   =         0.00000000
  -V(xc)+E(xc)   XCENC  =     -1990.06165094
  PAW double counting   =     25326.51111861   -21786.89270365
  entropy T*S    EENTRO =        -0.00000000
  eigenvalues    EBANDS =     -4820.70167639
  atomic energy  EATOM  =     27438.53791910
  Solvation  Ediel_sol  =         0.00000000
  ---------------------------------------------------
  free energy    TOTEN  =      -736.29087876 eV

  energy without entropy =     -736.29087876  energy(sigma->0) =     -736.29087876


--------------------------------------------------------------------------------------------------------




--------------------------------------- Iteration      1(   5)  ---------------------------------------


     EDDAV:  cpu time    4.1522: real time    4.1553
       DOS:  cpu time    0.0012: real time    0.0014
    CHARGE:  cpu time    0.0831: real time    0.0831
    MIXING:  cpu time    0.0048: real time    0.0062
    --------------------------------------------
      LOOP:  cpu time    4.2412: real time    4.2459

 eigenvalue-minimisations  :  1864
 total energy-change (2. order) :-0.1079451E+01  (-0.1078878E+01)
 number of electron     511.9999752 magnetization 
 augmentation part       -2.0246229 magnetization 

 DIPCOR: dipole corrections for dipol
 direction  3 min pos   280,
 dipolmoment           0.000000      0.000000      0.009349 electrons x Angstroem
 Tr[quadrupol]    -22275.770921

 energy correction for charged system         0.000000 eV
 dipol+quadrupol energy correction           -0.000002 eV
 added-field ion interaction         -0.019464 eV  (added to PSCEN)


 Broyden mixing:
  rms(total) = 0.59818E+01    rms(broyden)= 0.59799E+01
  rms(prec ) = 0.64276E+01
  weight for this iteration     100.00

 Free energy of the ion-electron system (eV)
  ---------------------------------------------------
  alpha Z        PSCENC =        -6.06082711
  Ewald energy   TEWEN  =     26346.76587164
  -Hartree energ DENC   =    -51244.38893002
  -exchange      EXHF   =         0.00000000
  -V(xc)+E(xc)   XCENC  =     -1990.06165094
  PAW double counting   =     25326.51111861   -21786.89270365
  entropy T*S    EENTRO =        -0.00000000
  eigenvalues    EBANDS =     -4821.78112783
  atomic energy  EATOM  =     27438.53791910
  Solvation  Ediel_sol  =         0.00000000
  ---------------------------------------------------
  free energy    TOTEN  =      -737.37033020 eV

  energy without entropy =     -737.37033020  energy(sigma->0) =     -737.37033020


--------------------------------------------------------------------------------------------------------




--------------------------------------- Iteration      1(   6)  ---------------------------------------


    POTLOK:  cpu time    0.0684: real time    0.0684
    SETDIJ:  cpu time    0.0853: real time    0.0853
    EDDIAG:  cpu time    0.5996: real time    0.5999
  RMM-DIIS:  cpu time    1.3596: real time    1.3602
    ORTHCH:  cpu time    0.2415: real time    0.2415
       DOS:  cpu time    0.0008: real time    0.0008
    CHARGE:  cpu time    0.0821: real time    0.0821
    MIXING:  cpu time    0.0030: real time    0.0035
    --------------------------------------------
      LOOP:  cpu time    2.4402: real time    2.4417

 eigenvalue-minimisations  :  1376
 total energy-change (2. order) : 0.1579834E+03  (-0.5664909E+02)
 number of electron     511.9999766 magnetization 
 augmentation part       -8.8299275 magnetization 

 DIPCOR: dipole corrections for dipol
 direction  3 min pos   280,
 dipolmoment           0.000000      0.000000     -0.154309 electrons x Angstroem
 Tr[quadrupol]    -22294.279392

 energy correction for charged system         0.000000 eV
 dipol+quadrupol energy correction           -0.000491 eV
 added-field ion interaction          0.321270 eV  (added to PSCEN)


 Broyden mixing:
  rms(total) = 0.22921E+01    rms(broyden)= 0.22886E+01
  rms(prec ) = 0.23912E+01
  weight for this iteration     100.00

 eigenvalues of (default mixing * dielectric matrix)
  average eigenvalue GAMMA=   0.7997
  0.7997

 Free energy of the ion-electron system (eV)
  ---------------------------------------------------
  alpha Z        PSCENC =        -5.72058179
  Ewald energy   TEWEN  =     26346.76587164
  -Hartree energ DENC   =    -52574.37123731
  -exchange      EXHF   =         0.00000000
  -V(xc)+E(xc)   XCENC  =     -1907.56440142
  PAW double counting   =     29489.70184537   -25968.46259129
  entropy T*S    EENTRO =        -0.00000000
  eigenvalues    EBANDS =     -3398.27372900
  atomic energy  EATOM  =     27438.53791910
  Solvation  Ediel_sol  =         0.00000000
  ---------------------------------------------------
  free energy    TOTEN  =      -579.38690471 eV

  energy without entropy =     -579.38690471  energy(sigma->0) =     -579.38690471


--------------------------------------------------------------------------------------------------------




--------------------------------------- Iteration      1(   7)  ---------------------------------------


    POTLOK:  cpu time    0.0593: real time    0.0593
    SETDIJ:  cpu time    0.0846: real time    0.0846
    EDDIAG:  cpu time    0.5876: real time    0.5876
  RMM-DIIS:  cpu time    1.5530: real time    1.5530
    ORTHCH:  cpu time    0.2411: real time    0.2411
       DOS:  cpu time    0.0027: real time    0.0027
    CHARGE:  cpu time    0.0827: real time    0.0827
    MIXING:  cpu time    0.0012: real time    0.0012
    --------------------------------------------
      LOOP:  cpu time    2.6122: real time    2.6123

 eigenvalue-minimisations  :  1560
 total energy-change (2. order) :-0.1476360E+01  (-0.1014924E+02)
 number of electron     511.9999768 magnetization 
 augmentation part       -9.6396464 magnetization 

 DIPCOR: dipole corrections for dipol
 direction  3 min pos   280,
 dipolmoment           0.000000      0.000000     -0.157998 electrons x Angstroem
 Tr[quadrupol]    -22307.652130

 energy correction for charged system         0.000000 eV
 dipol+quadrupol energy correction           -0.000515 eV
 added-field ion interaction          0.328951 eV  (added to PSCEN)


 Broyden mixing:
  rms(total) = 0.18108E+01    rms(broyden)= 0.18105E+01
  rms(prec ) = 0.18765E+01
[...]
   -.323E-03 -.144E-02 -.263E+03   0.299E-03 0.141E-02 0.263E+03   -.458E-03 0.369E-03 0.147E-02   -.855E-06 -.869E-06 0.662E-04
   -.364E-03 -.747E-03 -.597E+03   0.371E-03 0.746E-03 0.597E+03   0.185E-04 0.358E-04 -.262E+00   -.158E-06 -.203E-06 0.262E-04
   -.413E-02 -.109E-01 0.442E+03   0.398E-02 0.108E-01 -.442E+03   0.232E-03 0.322E-03 -.141E-01   -.153E-06 -.841E-06 0.704E-04
   -.170E-02 0.840E-03 0.896E+02   0.167E-02 -.864E-03 -.896E+02   0.680E-04 0.545E-04 -.258E-02   -.806E-06 -.678E-06 -.794E-04
   -.957E-03 -.154E-02 -.263E+03   0.101E-02 0.153E-02 0.263E+03   -.571E-04 0.583E-04 -.848E-03   -.876E-06 -.828E-06 0.559E-04
   0.639E-03 -.506E-03 -.597E+03   -.618E-03 0.513E-03 0.597E+03   -.162E-04 0.200E-04 -.262E+00   0.307E-07 -.204E-06 0.484E-04
   0.102E-01 0.711E-02 0.442E+03   -.102E-01 -.745E-02 -.442E+03   0.746E-03 0.121E-02 -.163E-01   0.302E-05 0.726E-05 0.682E-04
   -.271E-02 -.316E-03 0.896E+02   0.279E-02 0.304E-03 -.896E+02   -.527E-04 0.506E-04 0.127E-02   -.155E-06 -.529E-06 -.674E-04
   0.187E-02 0.276E-02 -.263E+03   -.186E-02 -.274E-02 0.263E+03   -.384E-04 -.898E-04 0.192E-02   -.457E-06 -.252E-06 0.542E-04
   -.136E-03 -.368E-03 -.597E+03   0.145E-03 0.380E-03 0.597E+03   0.132E-04 0.160E-04 -.262E+00   -.117E-06 -.595E-07 0.272E-04
   -.456E-02 -.106E-01 0.442E+03   0.443E-02 0.104E-01 -.442E+03   0.220E-03 0.322E-03 -.141E-01   0.295E-07 -.673E-06 0.704E-04
   -.995E-03 0.125E-02 0.896E+02   0.980E-03 -.123E-02 -.896E+02   0.449E-04 -.201E-04 -.251E-02   -.386E-06 -.250E-06 -.789E-04
   -.158E-02 -.678E-04 -.263E+03   0.158E-02 0.705E-04 0.263E+03   0.236E-04 0.204E-04 -.939E-03   -.842E-06 -.871E-06 0.557E-04
   -.303E-03 -.106E-02 -.597E+03   0.309E-03 0.106E-02 0.597E+03   0.881E-05 0.297E-04 -.262E+00   -.210E-06 -.376E-06 0.481E-04
   0.106E-01 0.741E-02 0.442E+03   -.106E-01 -.775E-02 -.442E+03   0.761E-03 0.122E-02 -.163E-01   0.304E-05 0.733E-05 0.683E-04
   -.217E-02 0.190E-03 0.896E+02   0.223E-02 -.202E-03 -.896E+02   -.263E-04 0.549E-04 0.126E-02   -.315E-06 -.689E-06 -.681E-04
   0.196E-02 0.299E-02 -.263E+03   -.198E-02 -.298E-02 0.263E+03   -.393E-05 -.681E-04 0.189E-02   -.577E-06 -.419E-06 0.547E-04
   -.262E-03 -.387E-03 -.597E+03   0.267E-03 0.396E-03 0.597E+03   0.219E-04 0.210E-04 -.262E+00   -.827E-07 -.933E-07 0.274E-04
   -.628E-02 -.110E-01 0.442E+03   0.621E-02 0.109E-01 -.442E+03   0.172E-03 0.346E-03 -.141E-01   -.113E-06 -.115E-05 0.705E-04
   0.187E-02 -.201E-02 0.896E+02   -.197E-02 0.201E-02 -.896E+02   0.140E-03 0.345E-04 -.265E-02   -.342E-06 -.981E-06 -.786E-04
   -.114E-02 -.101E-02 -.263E+03   0.120E-02 0.100E-02 0.263E+03   -.562E-04 0.521E-04 -.854E-03   -.751E-06 -.941E-06 0.557E-04
   -.921E-04 0.328E-03 -.597E+03   0.941E-04 -.301E-03 0.597E+03   0.132E-04 -.118E-04 -.262E+00   -.223E-06 -.801E-07 0.483E-04
   0.816E-02 0.918E-02 0.442E+03   -.810E-02 -.954E-02 -.442E+03   0.689E-03 0.122E-02 -.162E-01   0.275E-05 0.732E-05 0.690E-04
   -.237E-02 -.155E-02 0.896E+02   0.239E-02 0.163E-02 -.896E+02   0.367E-04 -.525E-04 0.111E-02   0.655E-06 0.295E-06 -.691E-04
   0.288E-02 0.313E-02 -.263E+03   -.287E-02 -.312E-02 0.263E+03   -.621E-04 -.817E-04 0.194E-02   -.485E-06 -.225E-06 0.549E-04
   0.751E-04 -.179E-03 -.597E+03   -.548E-04 0.193E-03 0.597E+03   -.432E-05 0.108E-04 -.262E+00   0.461E-07 -.396E-07 0.275E-04
 -----------------------------------------------------------------------------------------------
   0.289E-02 0.818E-03 -.406E+02   -.376E-13 -.168E-12 -.568E-12   -.634E-02 -.555E-02 0.403E+02   0.293E-04 0.719E-04 0.163E-02
 
 
 POSITION                                       TOTAL-FORCE (eV/Angst)
 -----------------------------------------------------------------------------------
     -2.22866      2.22863      8.16682         0.000162      0.000017      0.001608
     -2.22633     -0.00197      5.88058         0.000956      0.003091     -0.002052
     -2.22869      2.22870     12.68385         0.000020      0.000005     -0.002048
     -2.25071     -0.00023     10.42567        -0.002273      0.001162     -0.001084
     -2.22872      2.22866     17.19627         0.000867      0.000462     -0.001337
     -2.22320     -0.00174     14.94192         0.001140     -0.001088      0.001709
     -2.22870      2.22868     21.67524         0.000003      0.000016      0.002995
     -2.21263     -0.00025     19.46319         0.002098     -0.000311      0.002267
     -4.45572      2.22744      5.87900        -0.002561     -0.001178     -0.003427
     -6.68606      2.22871      8.16799        -0.000017      0.000250      0.001811
     -6.68838      0.00223      5.88073        -0.001986     -0.002231     -0.002230
     -4.45668      2.25216     10.41989        -0.001011      0.003045     -0.003256
     -6.68608      2.22867     12.68254        -0.000024      0.000029      0.002740
     -6.66407      0.00013     10.42569         0.002302     -0.001266     -0.001044
     -4.45690      2.22478     14.94037         0.007242     -0.002092     -0.000170
     -6.68609      2.22867     17.19800        -0.000027     -0.000037      0.002533
     -6.69153      0.00172     14.94185        -0.001193      0.000929      0.001667
     -4.45713      2.21346     19.45849        -0.000121     -0.004602     -0.004845
     -6.68608      2.22867     21.67811         0.000009      0.000003      0.009965
     -6.70219      0.00019     19.46318        -0.002155      0.000270      0.002247
     -8.91627      2.22998      5.87859         0.001252      0.000421     -0.003359
    -11.14344      2.22870      8.16686         0.000170      0.000137      0.001659
    -11.14110     -0.00195      5.88057         0.000948      0.003155     -0.002083
     -8.91543      2.20509     10.41989         0.001092     -0.003228     -0.003179
    -11.14347      2.22856     12.68392        -0.000002     -0.000210     -0.001994
    -11.16547     -0.00022     10.42567        -0.002275      0.001155     -0.001066
     -8.91531      2.23254     14.94040        -0.007235      0.002085     -0.000104
    -11.14348      2.22866     17.19628         0.000833      0.000492     -0.001336
    -11.13794     -0.00175     14.94195         0.001116     -0.001140      0.001777
     -8.91506      2.24387     19.45850         0.000051      0.004532     -0.004832
    -11.14346      2.22868     21.67525         0.000006      0.000022      0.003007
    -11.12739     -0.00025     19.46319         0.002145     -0.000311      0.002274
    -13.37048      2.22745      5.87901        -0.002572     -0.001180     -0.003367
    -15.60083      2.22858      8.16804        -0.000034      0.000038      0.001850
    -15.60315      0.00223      5.88074        -0.001977     -0.002243     -0.002249
    -13.37140      2.25226     10.41986        -0.001028      0.003130     -0.003249
    -15.60087      2.22872     12.68257         0.000013      0.000159      0.002802
    -15.57872      0.00010     10.42605         0.002471     -0.001189     -0.000653
    -13.37166      2.22479     14.94039         0.007277     -0.002064     -0.000076
    -15.60086      2.22867     17.19800        -0.000035     -0.000014      0.002519
    -15.60629      0.00172     14.94187        -0.001132      0.000921      0.001665
    -13.37189      2.21346     19.45849        -0.000125     -0.004548     -0.004851
    -15.60084      2.22867     21.67811         0.000000      0.000013      0.009968
    -15.61695      0.00019     19.46319        -0.002201      0.000279      0.002271
    -17.83103      2.22998      5.87859         0.001265      0.000427     -0.003375
    -17.83019      2.20510     10.41990         0.001111     -0.003215     -0.003177
    -17.83008      2.23255     14.94036        -0.007249      0.002130     -0.000132
    -17.82982      2.24387     19.45849         0.000045      0.004538     -0.004838
     -6.68606      6.68608      8.16686         0.000171      0.000137      0.001651
     -6.68372      4.45543      5.88056         0.000947      0.003154     -0.002088
     -6.68610      6.68594     12.68392         0.000002     -0.000203     -0.001994
     -6.70809      4.45716     10.42567        -0.002277      0.001151     -0.001074
     -6.68610      6.68604     17.19628         0.000827      0.000503     -0.001329
     -6.68055      4.45563     14.94195         0.001101     -0.001136      0.001782
     -6.68608      6.68606     21.67525         0.000002      0.000020      0.003007
     -6.67001      4.45713     19.46319         0.002129     -0.000304      0.002292
     -8.91310      6.68483      5.87901        -0.002572     -0.001181     -0.003371
    -11.14344      6.68596      8.16804        -0.000025      0.000043      0.001851
    -11.14577      4.45961      5.88074        -0.001980     -0.002244     -0.002246
     -8.91402      6.70964     10.41986        -0.001033      0.003130     -0.003254
    -11.14348      6.68612     12.68257         0.000009      0.000137      0.002796
    -11.12133      4.45748     10.42605         0.002469     -0.001199     -0.000645
     -8.91427      6.68218     14.94040         0.007277     -0.002061     -0.000062
    -11.14347      6.68606     17.19801        -0.000032     -0.000008      0.002553
    -11.14891      4.45910     14.94187        -0.001141      0.000918      0.001666
     -8.91451      6.67084     19.45849        -0.000116     -0.004553     -0.004843
    -11.14346      6.68605     21.67811        -0.000000      0.000015      0.009968
    -11.15957      4.45757     19.46319        -0.002202      0.000282      0.002274
    -13.37365      6.68736      5.87859         0.001265      0.000426     -0.003368
    -15.60080      6.68601      8.16683         0.000158      0.000014      0.001586
    -15.59847      4.45541      5.88058         0.000958      0.003090     -0.002045
    -13.37281      6.66246     10.41988         0.001106     -0.003240     -0.003187
    -15.60083      6.68608     12.68386        -0.000014     -0.000038     -0.002028
    -15.62285      4.45715     10.42566        -0.002280      0.001159     -0.001066
    -13.37270      6.68993     14.94039        -0.007239      0.002034     -0.000103
    -15.60085      6.68604     17.19627         0.000844      0.000506     -0.001317
    -15.59532      4.45564     14.94196         0.001088     -0.001079      0.001743
    -13.37244      6.70125     19.45849         0.000041      0.004576     -0.004855
    -15.60084      6.68606     21.67525         0.000008      0.000023      0.003003
    -15.58477      4.45713     19.46319         0.002139     -0.000309      0.002276
    -17.82785      6.68482      5.87900        -0.002561     -0.001176     -0.003418
    -20.05820      6.68608      8.16799        -0.000023      0.000243      0.001816
    -20.06052      4.45961      5.88073        -0.001984     -0.002233     -0.002239
    -17.82882      6.70954     10.41989        -0.001010      0.003043     -0.003238
    -20.05823      6.68603     12.68254         0.000012     -0.000002      0.002782
    -20.03619      4.45751     10.42571         0.002326     -0.001263     -0.001035
    -17.82903      6.68217     14.94040         0.007248     -0.002131     -0.000127
    -20.05823      6.68604     17.19800         0.000001     -0.000006      0.002503
    -20.06378      4.45906     14.94191        -0.001162      0.001094      0.001679
    -17.82927      6.67084     19.45849        -0.000121     -0.004556     -0.004850
    -20.05822      6.68605     21.67811         0.000009      0.000007      0.009969
    -20.07433      4.45757     19.46318        -0.002185      0.000276      0.002279
    -22.28841      6.68736      5.87859         0.001252      0.000424     -0.003364
    -22.28757      6.66246     10.41988         0.001103     -0.003222     -0.003190
    -22.28745      6.68992     14.94040        -0.007249      0.002142     -0.000117
    -22.28720      6.70124     19.45849         0.000047      0.004543     -0.004822
     -2.22863      2.22895      5.92570         0.000221     -0.000907     -0.003015
     -2.22867      2.22866     10.42643         0.000066     -0.000040     -0.002300
     -2.22872      2.22866     14.94103        -0.000072     -0.000037     -0.003043
     -2.22871      2.22867     19.45661         0.000001      0.000020      0.002015
     -6.68603      2.22896      5.92597         0.000099     -0.001121     -0.000706
     -6.68606      2.22865     10.42657         0.000026     -0.000015     -0.002722
     -6.68609      2.22867     14.94076         0.000059      0.000046      0.000621
     -6.68609      2.22867     19.45861        -0.000048      0.000016     -0.002291
    -11.14339      2.22896      5.92572         0.000211     -0.000881     -0.002998
    -11.14342      2.22865     10.42647         0.000043      0.000041     -0.002239
    -11.14347      2.22867     14.94107         0.000010      0.000059     -0.003147
    -11.14347      2.22867     19.45662        -0.000019     -0.000011      0.002034
    -15.60079      2.22895      5.92600         0.000093     -0.001149     -0.000674
    -15.60081      2.22863     10.42660        -0.000006      0.000047     -0.002675
    -15.60086      2.22867     14.94077         0.000015      0.000084      0.000600
    -15.60085      2.22867     19.45861        -0.000016     -0.000017     -0.002298
     -6.68601      6.68634      5.92572         0.000209     -0.000883     -0.002998
     -6.68604      6.68602     10.42647         0.000036      0.000031     -0.002241
     -6.68610      6.68604     14.94107         0.000017      0.000047     -0.003140
     -6.68609      6.68605     19.45662        -0.000010     -0.000016      0.002025
    -11.14341      6.68633      5.92600         0.000097     -0.001147     -0.000675
    -11.14342      6.68601     10.42661        -0.000005      0.000056     -0.002671
    -11.14348      6.68606     14.94077        -0.000024      0.000120      0.000613
    -11.14347      6.68605     19.45861         0.000004     -0.000049     -0.002278
    -15.60077      6.68633      5.92570         0.000224     -0.000905     -0.003017
    -15.60081      6.68604     10.42643         0.000083     -0.000026     -0.002295
    -15.60085      6.68605     14.94104         0.000057      0.000118     -0.003138
    -15.60085      6.68605     19.45662        -0.000045     -0.000039      0.002041
    -20.05817      6.68634      5.92597         0.000096     -0.001124     -0.000709
    -20.05820      6.68603     10.42657         0.000014     -0.000018     -0.002732
    -20.05824      6.68604     14.94076        -0.000038     -0.000023      0.000637
    -20.05823      6.68605     19.45861        -0.000031     -0.000015     -0.002309
     -0.00002     -0.00007      8.13327         0.000117      0.000241      0.002010
     -0.00001     -0.00004     12.68052         0.000045      0.000063     -0.001559
     -0.00002     -0.00003     17.19359         0.000008      0.000074      0.003019
     -0.00003     -0.00004     21.65753         0.000041      0.000055      0.002294
     -4.45723      0.00014      8.13456         0.000787      0.000911      0.001122
     -4.45740     -0.00004     12.68057         0.000046      0.000066      0.002487
     -4.45741     -0.00004     17.19254        -0.000462      0.000364      0.002618
     -4.45741     -0.00004     21.66043         0.000046      0.000064      0.002239
     -8.91475     -0.00005      8.13329         0.000111      0.000231      0.001977
     -8.91478     -0.00004     12.68052         0.000059      0.000059     -0.001547
     -8.91478     -0.00003     17.19359         0.000019      0.000071      0.003025
     -8.91478     -0.00004     21.65753         0.000026      0.000056      0.002295
    -13.37197      0.00014      8.13456         0.000777      0.000909      0.001101
    -13.37218     -0.00004     12.68056         0.000050      0.000068      0.002488
    -13.37213      0.00002     17.19231        -0.000013     -0.000037      0.002929
    -13.37216     -0.00004     21.66042         0.000044      0.000057      0.002213
     -4.45738      4.45733      8.13329         0.000112      0.000228      0.001979
     -4.45741      4.45734     12.68052         0.000051      0.000030     -0.001524
     -4.45741      4.45735     17.19359         0.000043      0.000051      0.002995
     -4.45741      4.45734     21.65753         0.000035      0.000060      0.002290
     -8.91459      4.45751      8.13456         0.000783      0.000915      0.001105
     -8.91480      4.45734     12.68056         0.000061      0.000071      0.002487
     -8.91475      4.45740     17.19231         0.000000     -0.000028      0.002917
     -8.91478      4.45734     21.66042         0.000048      0.000059      0.002217
    -13.37216      4.45731      8.13327         0.000120      0.000240      0.002009
    -13.37215      4.45734     12.68052         0.000070      0.000063     -0.001564
    -13.37216      4.45735     17.19359         0.000020      0.000068      0.003023
    -13.37216      4.45734     21.65753         0.000036      0.000045      0.002296
    -17.82936      4.45752      8.13456         0.000774      0.000899      0.001118
    -17.82956      4.45733     12.68058         0.000077      0.000052      0.002399
    -17.82951      4.45740     17.19231        -0.000027     -0.000035      0.002931
    -17.82954      4.45734     21.66042         0.000037      0.000054      0.002217
 -----------------------------------------------------------------------------------
    total drift:                               -0.003416     -0.004658     -0.290244


--------------------------------------------------------------------------------------------------------



  FREE ENERGIE OF THE ION-ELECTRON SYSTEM (eV)
  ---------------------------------------------------
  free  energy   TOTEN  =      -574.55576393 eV

  energy  without entropy=     -574.55576393  energy(sigma->0) =     -574.55576393
 
 d Force = 0.4173475E-03[ 0.231E-03, 0.603E-03]  d Energy = 0.4054264E-03 0.119E-04
 d Force = 0.1036956E+02[ 0.104E+02, 0.104E+02]  d Ewald  = 0.1036956E+02 0.498E-07


--------------------------------------------------------------------------------------------------------


    POTLOK:  cpu time    0.1472: real time    0.1473


--------------------------------------------------------------------------------------------------------


 Conjugate gradient step on ions:
 trial-energy change:   -0.000405  1 .order   -0.000417   -0.000603   -0.000231
  (g-gl).g = 0.172E-03      g.g   = 0.210E-03  gl.gl    = 0.327E-03
 g(Force)  = 0.210E-03   g(Stress)= 0.000E+00 ortho     = 0.203E-04
 gamma     =   0.52714
 trial     =   2.72965
 opt step  =   5.50016  (harmonic =   4.42689) maximal distance =0.00417121
 next E    =  -574.555869   (d E  =  -0.00051)


--------------------------------------------------------------------------------------------------------


  
 reached required accuracy - stopping structural energy minimisation
     LOOP+:  cpu time   52.8496: real time   52.9094
    4ORBIT:  cpu time    0.0000: real time    0.0000

 total amount of memory used by VASP MPI-rank0    58268. kBytes
=======================================================================

   base      :      30000. kBytes
   nonlr-proj:       6889. kBytes
   fftplans  :       4926. kBytes
   grid      :       9012. kBytes
   one-center:         33. kBytes
   wavefun   :       7408. kBytes
 
  
  
 General timing and accounting informations for this job:
 ========================================================
  
                  Total CPU time used (sec):     1454.575
                            User time (sec):     1442.161
                          System time (sec):       12.413
                         Elapsed time (sec):     1458.519
  
                   Maximum memory used (kb):      122352.
                   Average memory used (kb):          N/A
  
                          Minor page faults:      1256238
                          Major page faults:           16
                 Voluntary context switches:         5438
