<?xml version="1.0" encoding="ISO-8859-1"?>
<modeling>
 <generator>
  <i name="program" type="string">vasp </i>
  <i name="version" type="string">6.2.1  </i>
  <i name="subversion" type="string">16May21 (build Dec 23 2021 00:35:04) complex                          parallel </i>
  <i name="platform" type="string">LinuxIFC </i>
  <i name="date" type="string">2023 03 27 </i>
  <i name="time" type="string">23:51:59 </i>
 </generator>
 <incar>
  <i type="string" name="PREC">Normal</i>
  <i type="string" name="ALGO">Fast</i>
  <i type="int" name="ISPIN">     0</i>
  <i type="int" name="NELM">   150</i>
  <i type="int" name="IBRION">     2</i>
  <i name="EDIFF">      0.00000001</i>
  <i name="EDIFFG">     -0.01000000</i>
  <i type="int" name="NSW">   800</i>
  <i type="int" name="ISIF">     2</i>
  <i type="int" name="ISYM">     0</i>
  <i name="ENCUT">    400.00000000</i>
  <i type="string" name="LREAL">AUTO</i>
  <i type="int" name="ISMEAR">     0</i>
  <i name="SIGMA">      0.10000000</i>
  <i name="KSPACING">      0.50000000</i>
  <i type="logical" name="KGAMMA"> T  </i>
  <i type="int" name="NWRITE">     1</i>
  <i type="int" name="LMAXMIX">     6</i>
  <i type="logical" name="LWAVE"> F  </i>
  <i type="logical" name="LCHARG"> F  </i>
  <i type="logical" name="LASPH"> T  </i>
  <i type="string" name="GGA">PE</i>
  <i type="logical" name="LDIPOL"> T  </i>
  <i type="int" name="IDIPOL">     3</i>
  <v name="DIPOL">      0.37870000      0.42270000      0.49880000</v>
 </incar>
 <primitive_cell>
  <structure name="primitive_cell" >
   <crystal>
    <varray name="basis" >
     <v>      -8.91475688       8.91475688       0.00000000 </v>
     <v>     -17.82951376       0.00000000       0.00000000 </v>
     <v>       0.00000000       0.00000000      27.60082437 </v>
    </varray>
    <i name="volume">   4387.03457046 </i>
    <varray name="rec_basis" >
     <v>       0.00000000       0.11217356       0.00000000 </v>
     <v>      -0.05608678      -0.05608678       0.00000000 </v>
     <v>       0.00000000       0.00000000       0.03623080 </v>
    </varray>
   </crystal>
   <varray name="positions" >
    <v>       0.25000009       0.00000000       0.29813200 </v>
    <v>       0.00000005       0.12500002       0.21738481 </v>
    <v>       0.25000009       0.00000000       0.45962639 </v>
    <v>       0.00000005       0.12500002       0.37887921 </v>
    <v>       0.25000009       0.00000000       0.62112079 </v>
    <v>       0.00000005       0.12500002       0.54037361 </v>
    <v>       0.25000009       0.00000000       0.78261519 </v>
    <v>       0.00000005       0.12500002       0.70186800 </v>
    <v>       0.25000009       0.12499998       0.21738481 </v>
    <v>       0.25000009       0.25000000       0.29813200 </v>
    <v>       0.00000005       0.37500002       0.21738481 </v>
    <v>       0.25000009       0.12499998       0.37887921 </v>
    <v>       0.25000009       0.25000000       0.45962639 </v>
    <v>       0.00000005       0.37500002       0.37887921 </v>
    <v>       0.25000009       0.12499998       0.54037361 </v>
    <v>       0.25000009       0.25000000       0.62112079 </v>
    <v>       0.00000005       0.37500002       0.54037361 </v>
    <v>       0.25000009       0.12499998       0.70186800 </v>
    <v>       0.25000009       0.25000000       0.78261519 </v>
    <v>       0.00000005       0.37500002       0.70186800 </v>
    <v>       0.25000009       0.37499998       0.21738481 </v>
    <v>       0.25000009       0.50000000       0.29813200 </v>
    <v>       0.00000005       0.62500002       0.21738481 </v>
    <v>       0.25000009       0.37499998       0.37887921 </v>
    <v>       0.25000009       0.50000000       0.45962639 </v>
    <v>       0.00000005       0.62500002       0.37887921 </v>
    <v>       0.25000009       0.37499998       0.54037361 </v>
    <v>       0.25000009       0.50000000       0.62112079 </v>
    <v>       0.00000005       0.62500002       0.54037361 </v>
    <v>       0.25000009       0.37499998       0.70186800 </v>
    <v>       0.25000009       0.50000000       0.78261519 </v>
    <v>       0.00000005       0.62500002       0.70186800 </v>
    <v>       0.25000009       0.62499998       0.21738481 </v>
    <v>       0.25000009       0.75000000       0.29813200 </v>
    <v>       0.00000005       0.87500002       0.21738481 </v>
    <v>       0.25000009       0.62499998       0.37887921 </v>
    <v>       0.25000009       0.75000000       0.45962639 </v>
    <v>       0.00000005       0.87500002       0.37887921 </v>
    <v>       0.25000009       0.62499998       0.54037361 </v>
    <v>       0.25000009       0.75000000       0.62112079 </v>
    <v>       0.00000005       0.87500002       0.54037361 </v>
    <v>       0.25000009       0.62499998       0.70186800 </v>
    <v>       0.25000009       0.75000000       0.78261519 </v>
    <v>       0.00000005       0.87500002       0.70186800 </v>
    <v>       0.25000009       0.87499998       0.21738481 </v>
    <v>       0.25000009       0.87499998       0.37887921 </v>
    <v>       0.25000009       0.87499998       0.54037361 </v>
    <v>       0.25000009       0.87499998       0.70186800 </v>
    <v>       0.75000009       0.00000000       0.29813200 </v>
    <v>       0.50000005       0.12500002       0.21738481 </v>
    <v>       0.75000009       0.00000000       0.45962639 </v>
    <v>       0.50000005       0.12500002       0.37887921 </v>
    <v>       0.75000009       0.00000000       0.62112079 </v>
    <v>       0.50000005       0.12500002       0.54037361 </v>
    <v>       0.75000009       0.00000000       0.78261519 </v>
    <v>       0.50000005       0.12500002       0.70186800 </v>
    <v>       0.75000009       0.12499998       0.21738481 </v>
    <v>       0.75000009       0.25000000       0.29813200 </v>
    <v>       0.50000005       0.37500002       0.21738481 </v>
    <v>       0.75000009       0.12499998       0.37887921 </v>
    <v>       0.75000009       0.25000000       0.45962639 </v>
    <v>       0.50000005       0.37500002       0.37887921 </v>
    <v>       0.75000009       0.12499998       0.54037361 </v>
    <v>       0.75000009       0.25000000       0.62112079 </v>
    <v>       0.50000005       0.37500002       0.54037361 </v>
    <v>       0.75000009       0.12499998       0.70186800 </v>
    <v>       0.75000009       0.25000000       0.78261519 </v>
    <v>       0.50000005       0.37500002       0.70186800 </v>
    <v>       0.75000009       0.37499998       0.21738481 </v>
    <v>       0.75000009       0.50000000       0.29813200 </v>
    <v>       0.50000005       0.62500002       0.21738481 </v>
    <v>       0.75000009       0.37499998       0.37887921 </v>
    <v>       0.75000009       0.50000000       0.45962639 </v>
    <v>       0.50000005       0.62500002       0.37887921 </v>
    <v>       0.75000009       0.37499998       0.54037361 </v>
    <v>       0.75000009       0.50000000       0.62112079 </v>
    <v>       0.50000005       0.62500002       0.54037361 </v>
    <v>       0.75000009       0.37499998       0.70186800 </v>
    <v>       0.75000009       0.50000000       0.78261519 </v>
    <v>       0.50000005       0.62500002       0.70186800 </v>
    <v>       0.75000009       0.62499998       0.21738481 </v>
    <v>       0.75000009       0.75000000       0.29813200 </v>
    <v>       0.50000005       0.87500002       0.21738481 </v>
    <v>       0.75000009       0.62499998       0.37887921 </v>
    <v>       0.75000009       0.75000000       0.45962639 </v>
    <v>       0.50000005       0.87500002       0.37887921 </v>
    <v>       0.75000009       0.62499998       0.54037361 </v>
    <v>       0.75000009       0.75000000       0.62112079 </v>
    <v>       0.50000005       0.87500002       0.54037361 </v>
    <v>       0.75000009       0.62499998       0.70186800 </v>
    <v>       0.75000009       0.75000000       0.78261519 </v>
    <v>       0.50000005       0.87500002       0.70186800 </v>
    <v>       0.75000009       0.87499998       0.21738481 </v>
    <v>       0.75000009       0.87499998       0.37887921 </v>
    <v>       0.75000009       0.87499998       0.54037361 </v>
    <v>       0.75000009       0.87499998       0.70186800 </v>
    <v>       0.25000009       0.00000000       0.21738481 </v>
    <v>       0.25000009       0.00000000       0.37887921 </v>
    <v>       0.25000009       0.00000000       0.54037361 </v>
    <v>       0.25000009       0.00000000       0.70186800 </v>
    <v>       0.25000009       0.25000000       0.21738481 </v>
    <v>       0.25000009       0.25000000       0.37887921 </v>
    <v>       0.25000009       0.25000000       0.54037361 </v>
    <v>       0.25000009       0.25000000       0.70186800 </v>
    <v>       0.25000009       0.50000000       0.21738481 </v>
    <v>       0.25000009       0.50000000       0.37887921 </v>
    <v>       0.25000009       0.50000000       0.54037361 </v>
    <v>       0.25000009       0.50000000       0.70186800 </v>
    <v>       0.25000009       0.75000000       0.21738481 </v>
    <v>       0.25000009       0.75000000       0.37887921 </v>
    <v>       0.25000009       0.75000000       0.54037361 </v>
    <v>       0.25000009       0.75000000       0.70186800 </v>
    <v>       0.75000009       0.00000000       0.21738481 </v>
    <v>       0.75000009       0.00000000       0.37887921 </v>
    <v>       0.75000009       0.00000000       0.54037361 </v>
    <v>       0.75000009       0.00000000       0.70186800 </v>
    <v>       0.75000009       0.25000000       0.21738481 </v>
    <v>       0.75000009       0.25000000       0.37887921 </v>
    <v>       0.75000009       0.25000000       0.54037361 </v>
    <v>       0.75000009       0.25000000       0.70186800 </v>
    <v>       0.75000009       0.50000000       0.21738481 </v>
    <v>       0.75000009       0.50000000       0.37887921 </v>
    <v>       0.75000009       0.50000000       0.54037361 </v>
    <v>       0.75000009       0.50000000       0.70186800 </v>
    <v>       0.75000009       0.75000000       0.21738481 </v>
    <v>       0.75000009       0.75000000       0.37887921 </v>
    <v>       0.75000009       0.75000000       0.54037361 </v>
    <v>       0.75000009       0.75000000       0.70186800 </v>
    <v>       0.00000005       0.00000000       0.29813200 </v>
    <v>       0.00000005       0.00000000       0.45962639 </v>
    <v>       0.00000005       0.00000000       0.62112079 </v>
    <v>       0.00000005       0.00000000       0.78261519 </v>
    <v>       0.00000005       0.25000000       0.29813200 </v>
    <v>       0.00000005       0.25000000       0.45962639 </v>
    <v>       0.00000005       0.25000000       0.62112079 </v>
    <v>       0.00000005       0.25000000       0.78261519 </v>
    <v>       0.00000005       0.50000000       0.29813200 </v>
    <v>       0.00000005       0.50000000       0.45962639 </v>
    <v>       0.00000005       0.50000000       0.62112079 </v>
    <v>       0.00000005       0.50000000       0.78261519 </v>
    <v>       0.00000005       0.75000000       0.29813200 </v>
    <v>       0.00000005       0.75000000       0.45962639 </v>
    <v>       0.00000005       0.75000000       0.62112079 </v>
    <v>       0.00000005       0.75000000       0.78261519 </v>
    <v>       0.50000005       0.00000000       0.29813200 </v>
    <v>       0.50000005       0.00000000       0.45962639 </v>
    <v>       0.50000005       0.00000000       0.62112079 </v>
    <v>       0.50000005       0.00000000       0.78261519 </v>
    <v>       0.50000005       0.25000000       0.29813200 </v>
    <v>       0.50000005       0.25000000       0.45962639 </v>
    <v>       0.50000005       0.25000000       0.62112079 </v>
    <v>       0.50000005       0.25000000       0.78261519 </v>
    <v>       0.50000005       0.50000000       0.29813200 </v>
    <v>       0.50000005       0.50000000       0.45962639 </v>
    <v>       0.50000005       0.50000000       0.62112079 </v>
    <v>       0.50000005       0.50000000       0.78261519 </v>
    <v>       0.50000005       0.75000000       0.29813200 </v>
    <v>       0.50000005       0.75000000       0.45962639 </v>
    <v>       0.50000005       0.75000000       0.62112079 </v>
    <v>       0.50000005       0.75000000       0.78261519 </v>
   </varray>
  </structure>
  <varray name="primitive_index" >
   <v type="int" >        1 </v>
   <v type="int" >        2 </v>
   <v type="int" >        3 </v>
   <v type="int" >        4 </v>
   <v type="int" >        5 </v>
   <v type="int" >        6 </v>
   <v type="int" >        7 </v>
   <v type="int" >        8 </v>
   <v type="int" >        9 </v>
   <v type="int" >       10 </v>
   <v type="int" >       11 </v>
   <v type="int" >       12 </v>
   <v type="int" >       13 </v>
   <v type="int" >       14 </v>
   <v type="int" >       15 </v>
   <v type="int" >       16 </v>
   <v type="int" >       17 </v>
   <v type="int" >       18 </v>
   <v type="int" >       19 </v>
   <v type="int" >       20 </v>
   <v type="int" >       21 </v>
   <v type="int" >       22 </v>
   <v type="int" >       23 </v>
   <v type="int" >       24 </v>
   <v type="int" >       25 </v>
   <v type="int" >       26 </v>
   <v type="int" >       27 </v>
   <v type="int" >       28 </v>
   <v type="int" >       29 </v>
   <v type="int" >       30 </v>
   <v type="int" >       31 </v>
   <v type="int" >       32 </v>
   <v type="int" >       33 </v>
   <v type="int" >       34 </v>
   <v type="int" >       35 </v>
   <v type="int" >       36 </v>
   <v type="int" >       37 </v>
   <v type="int" >       38 </v>
   <v type="int" >       39 </v>
   <v type="int" >       40 </v>
   <v type="int" >       41 </v>
   <v type="int" >       42 </v>
   <v type="int" >       43 </v>
   <v type="int" >       44 </v>
   <v type="int" >       45 </v>
   <v type="int" >       46 </v>
   <v type="int" >       47 </v>
   <v type="int" >       48 </v>
   <v type="int" >       49 </v>
   <v type="int" >       50 </v>
   <v type="int" >       51 </v>
   <v type="int" >       52 </v>
   <v type="int" >       53 </v>
   <v type="int" >       54 </v>
   <v type="int" >       55 </v>
   <v type="int" >       56 </v>
   <v type="int" >       57 </v>
   <v type="int" >       58 </v>
   <v type="int" >       59 </v>
   <v type="int" >       60 </v>
   <v type="int" >       61 </v>
   <v type="int" >       62 </v>
   <v type="int" >       63 </v>
   <v type="int" >       64 </v>
   <v type="int" >       65 </v>
   <v type="int" >       66 </v>
   <v type="int" >       67 </v>
   <v type="int" >       68 </v>
   <v type="int" >       69 </v>
   <v type="int" >       70 </v>
   <v type="int" >       71 </v>
   <v type="int" >       72 </v>
   <v type="int" >       73 </v>
   <v type="int" >       74 </v>
   <v type="int" >       75 </v>
   <v type="int" >       76 </v>
   <v type="int" >       77 </v>
   <v type="int" >       78 </v>
   <v type="int" >       79 </v>
   <v type="int" >       80 </v>
   <v type="int" >       81 </v>
   <v type="int" >       82 </v>
   <v type="int" >       83 </v>
   <v type="int" >       84 </v>
   <v type="int" >       85 </v>
   <v type="int" >       86 </v>
   <v type="int" >       87 </v>
   <v type="int" >       88 </v>
   <v type="int" >       89 </v>
   <v type="int" >       90 </v>
   <v type="int" >       91 </v>
   <v type="int" >       92 </v>
   <v type="int" >       93 </v>
   <v type="int" >       94 </v>
   <v type="int" >       95 </v>
   <v type="int" >       96 </v>
   <v type="int" >       97 </v>
   <v type="int" >       98 </v>
   <v type="int" >       99 </v>
   <v type="int" >      100 </v>
   <v type="int" >      101 </v>
   <v type="int" >      102 </v>
   <v type="int" >      103 </v>
   <v type="int" >      104 </v>
   <v type="int" >      105 </v>
   <v type="int" >      106 </v>
   <v type="int" >      107 </v>
   <v type="int" >      108 </v>
   <v type="int" >      109 </v>
   <v type="int" >      110 </v>
   <v type="int" >      111 </v>
   <v type="int" >      112 </v>
   <v type="int" >      113 </v>
   <v type="int" >      114 </v>
   <v type="int" >      115 </v>
   <v type="int" >      116 </v>
   <v type="int" >      117 </v>
   <v type="int" >      118 </v>
   <v type="int" >      119 </v>
   <v type="int" >      120 </v>
   <v type="int" >      121 </v>
   <v type="int" >      122 </v>
   <v type="int" >      123 </v>
   <v type="int" >      124 </v>
   <v type="int" >      125 </v>
   <v type="int" >      126 </v>
   <v type="int" >      127 </v>
   <v type="int" >      128 </v>
   <v type="int" >      129 </v>
   <v type="int" >      130 </v>
   <v type="int" >      131 </v>
   <v type="int" >      132 </v>
   <v type="int" >      133 </v>
   <v type="int" >      134 </v>
   <v type="int" >      135 </v>
   <v type="int" >      136 </v>
   <v type="int" >      137 </v>
   <v type="int" >      138 </v>
   <v type="int" >      139 </v>
   <v type="int" >      140 </v>
   <v type="int" >      141 </v>
   <v type="int" >      142 </v>
   <v type="int" >      143 </v>
   <v type="int" >      144 </v>
   <v type="int" >      145 </v>
   <v type="int" >      146 </v>
   <v type="int" >      147 </v>
   <v type="int" >      148 </v>
   <v type="int" >      149 </v>
   <v type="int" >      150 </v>
   <v type="int" >      151 </v>
   <v type="int" >      152 </v>
   <v type="int" >      153 </v>
   <v type="int" >      154 </v>
   <v type="int" >      155 </v>
   <v type="int" >      156 </v>
   <v type="int" >      157 </v>
   <v type="int" >      158 </v>
   <v type="int" >      159 </v>
   <v type="int" >      160 </v>
  </varray>
 </primitive_cell>
 <kpoints>
  <generation param="Gamma">
   <v type="int" name="divisions">       2        1        1 </v>
   <v name="usershift">      0.00000000       0.00000000       0.00000000 </v>
   <v name="genvec1">      0.50000000       0.00000000       0.00000000 </v>
   <v name="genvec2">      0.00000000       1.00000000       0.00000000 </v>
   <v name="genvec3">      0.00000000       0.00000000       1.00000000 </v>
   <v name="shift">      0.00000000       0.00000000       0.00000000 </v>
  </generation>
  <varray name="kpointlist" >
   <v>       0.00000000       0.00000000       0.00000000 </v>
   <v>       0.50000000       0.00000000       0.00000000 </v>
  </varray>
  <varray name="weights" >
   <v>       0.50000000 </v>
   <v>       0.50000000 </v>
  </varray>
 </kpoints>
 <parameters>
  <separator name="general" >
   <i type="string" name="SYSTEM">unknown system</i>
   <i type="logical" name="LCOMPAT"> F  </i>
  </separator>
  <separator name="electronic" >
   <i type="string" name="PREC">normal</i>
   <i name="ENMAX">    400.00000000</i>
   <i name="ENAUG">    605.39200000</i>
   <i name="EDIFF">      0.00000001</i>
   <i type="int" name="IALGO">    68</i>
   <i type="int" name="IWAVPR">    11</i>
   <i type="int" name="NBANDS">   344</i>
   <i type="int" name="NBANDSLOW">    -1</i>
   <i type="int" name="NBANDSHIGH">    -1</i>
   <i name="NELECT">    512.00000000</i>
   <i type="int" name="TURBO">     0</i>
   <i type="int" name="IRESTART">     0</i>
   <i type="int" name="NREBOOT">     0</i>
   <i type="int" name="NMIN">     0</i>
   <i name="EREF">      0.00000000</i>
   <separator name="electronic smearing" >
    <i type="int" name="ISMEAR">     0</i>
    <i name="SIGMA">      0.10000000</i>
    <i name="KSPACING">      0.50000000</i>
    <i type="logical" name="KGAMMA"> T  </i>
    <i type="logical" name="KBLOWUP"> T  </i>
   </separator>
   <separator name="electronic projectors" >
    <i type="logical" name="LREAL"> T  </i>
    <v name="ROPT">     -0.00050000     -0.00050000     -0.00050000</v>
    <i type="int" name="LMAXPAW">  -100</i>
    <i type="int" name="LMAXMIX">     6</i>
    <i type="logical" name="NLSPLINE"> F  </i>
   </separator>
   <separator name="electronic startup" >
    <i type="int" name="ISTART">     0</i>
    <i type="int" name="ICHARG">     2</i>
    <i type="int" name="INIWAV">     1</i>
   </separator>
   <separator name="electronic spin" >
    <i type="int" name="ISPIN">     1</i>
    <i type="logical" name="LNONCOLLINEAR"> F  </i>
    <v name="MAGMOM">      1.00000000      1.00000000      1.00000000      1.00000000      1.00000000      1.00000000      1.00000000      1.00000000      1.00000000      1.00000000      1.00000000      1.00000000      1.00000000      1.00000000      1.00000000      1.00000000      1.00000000      1.00000000      1.00000000      1.00000000
      1.00000000      1.00000000      1.00000000      1.00000000      1.00000000      1.00000000      1.00000000      1.00000000      1.00000000      1.00000000      1.00000000      1.00000000      1.00000000      1.00000000      1.00000000      1.00000000      1.00000000      1.00000000      1.00000000      1.00000000
      1.00000000      1.00000000      1.00000000      1.00000000      1.00000000      1.00000000      1.00000000      1.00000000      1.00000000      1.00000000      1.00000000      1.00000000      1.00000000      1.00000000      1.00000000      1.00000000      1.00000000      1.00000000      1.00000000      1.00000000
      1.00000000      1.00000000      1.00000000      1.00000000      1.00000000      1.00000000      1.00000000      1.00000000      1.00000000      1.00000000      1.00000000      1.00000000      1.00000000      1.00000000      1.00000000      1.00000000      1.00000000      1.00000000      1.00000000      1.00000000
      1.00000000      1.00000000      1.00000000      1.00000000      1.00000000      1.00000000      1.00000000      1.00000000      1.00000000      1.00000000      1.00000000      1.00000000      1.00000000      1.00000000      1.00000000      1.00000000      1.00000000      1.00000000      1.00000000      1.00000000
      1.00000000      1.00000000      1.00000000      1.00000000      1.00000000      1.00000000      1.00000000      1.00000000      1.00000000      1.00000000      1.00000000      1.00000000      1.00000000      1.00000000      1.00000000      1.00000000      1.00000000      1.00000000      1.00000000      1.00000000
      1.00000000      1.00000000      1.00000000      1.00000000      1.00000000      1.00000000      1.00000000      1.00000000      1.00000000      1.00000000      1.00000000      1.00000000      1.00000000      1.00000000      1.00000000      1.00000000      1.00000000      1.00000000      1.00000000      1.00000000
      1.00000000      1.00000000      1.00000000      1.00000000      1.00000000      1.00000000      1.00000000      1.00000000      1.00000000      1.00000000      1.00000000      1.00000000      1.00000000      1.00000000      1.00000000      1.00000000      1.00000000      1.00000000      1.00000000      1.00000000
</v>
    <i name="NUPDOWN">     -1.00000000</i>
    <i type="logical" name="LSORBIT"> F  </i>
    <v name="SAXIS">      0.00000000      0.00000000      1.00000000</v>
    <i type="logical" name="LSPIRAL"> F  </i>
    <v name="QSPIRAL">      0.00000000      0.00000000      0.00000000</v>
    <i type="logical" name="LZEROZ"> F  </i>
   </separator>
   <separator name="electronic exchange-correlation" >
    <i type="logical" name="LASPH"> T  </i>
    <i type="logical" name="LMETAGGA"> F  </i>
   </separator>
   <separator name="electronic convergence" >
    <i type="int" name="NELM">   150</i>
    <i type="int" name="NELMDL">     0</i>
    <i type="int" name="NELMIN">     2</i>
    <i name="ENINI">    400.00000000</i>
    <separator name="electronic convergence detail" >
     <i type="logical" name="LDIAG"> T  </i>
     <i type="logical" name="LSUBROT"> F  </i>
     <i name="WEIMIN">      0.00100000</i>
     <i name="EBREAK">      0.00000000</i>
     <i name="DEPER">      0.30000000</i>
     <i type="int" name="NRMM">     4</i>
     <i name="TIME">      0.40000000</i>
    </separator>
   </separator>
   <separator name="electronic mixer" >
    <i name="AMIX">      0.40000000</i>
    <i name="BMIX">      1.00000000</i>
    <i name="AMIN">      0.10000000</i>
    <i name="AMIX_MAG">      1.60000000</i>
    <i name="BMIX_MAG">      1.00000000</i>
    <separator name="electronic mixer details" >
     <i type="int" name="IMIX">     4</i>
     <i type="logical" name="MIXFIRST"> F  </i>
     <i type="int" name="MAXMIX">   -45</i>
     <i name="WC">    100.00000000</i>
     <i type="int" name="INIMIX">     1</i>
     <i type="int" name="MIXPRE">     1</i>
     <i type="int" name="MREMOVE">     5</i>
    </separator>
   </separator>
   <separator name="electronic dipolcorrection" >
    <i type="logical" name="LDIPOL"> T  </i>
    <i type="logical" name="LMONO"> F  </i>
    <i type="int" name="IDIPOL">     3</i>
    <i name="EPSILON">      1.00000000</i>
    <v name="DIPOL">      0.37870000      0.42270000      0.49880000</v>
    <i name="EFIELD">      0.00000000</i>
   </separator>
  </separator>
  <separator name="grids" >
   <i type="int" name="NGX">    64</i>
   <i type="int" name="NGY">    90</i>
   <i type="int" name="NGZ">   140</i>
   <i type="int" name="NGXF">   128</i>
   <i type="int" name="NGYF">   180</i>
   <i type="int" name="NGZF">   280</i>
   <i type="logical" name="ADDGRID"> F  </i>
  </separator>
  <separator name="ionic" >
   <i type="int" name="NSW">   800</i>
   <i type="int" name="IBRION">     2</i>
   <i type="int" name="MDALGO">     0</i>
   <i type="int" name="ISIF">     2</i>
   <i name="PSTRESS">      0.00000000</i>
   <i name="EDIFFG">     -0.01000000</i>
   <i type="int" name="NFREE">     1</i>
   <i name="POTIM">      0.50000000</i>
   <i name="SMASS">     -3.00000000</i>
   <i name="SCALEE">      1.00000000</i>
  </separator>
  <separator name="ionic md" >
   <i name="TEBEG">      0.00010000</i>
   <i name="TEEND">      0.00010000</i>
   <i type="int" name="NBLOCK">     1</i>
   <i type="int" name="KBLOCK">   800</i>
   <i type="int" name="NPACO">   256</i>
   <i name="APACO">     16.00000000</i>
  </separator>
  <separator name="symmetry" >
   <i type="int" name="ISYM">     0</i>
   <i name="SYMPREC">      0.00001000</i>
  </separator>
  <separator name="dos" >
   <i type="int" name="LORBIT">     0</i>
   <v name="RWIGS">     -1.00000000     -1.00000000     -1.00000000</v>
   <i type="int" name="NEDOS">   301</i>
   <i name="EMIN">     10.00000000</i>
   <i name="EMAX">    -10.00000000</i>
   <i name="EFERMI">      0.00000000</i>
  </separator>
  <separator name="writing" >
   <i type="int" name="NWRITE">     1</i>
   <i type="logical" name="LWAVE"> F  </i>
   <i type="logical" name="LDOWNSAMPLE"> F  </i>
   <i type="logical" name="LCHARG"> F  </i>
   <i type="logical" name="LPARD"> F  </i>
   <i type="logical" name="LVTOT"> F  </i>
   <i type="logical" name="LVHAR"> F  </i>
   <i type="logical" name="LELF"> F  </i>
   <i type="logical" name="LOPTICS"> F  </i>
   <v name="STM">      0.00000000      0.00000000      0.00000000      0.00000000      0.00000000      0.00000000      0.00000000</v>
  </separator>
  <separator name="performance" >
   <i type="int" name="NPAR">     8</i>
   <i type="int" name="NSIM">     4</i>
   <i type="int" name="NBLK">    -1</i>
   <i type="logical" name="LPLANE"> T  </i>
   <i type="logical" name="LSCALAPACK"> T  </i>
   <i type="logical" name="LSCAAWARE"> F  </i>
   <i type="logical" name="LSCALU"> F  </i>
   <i type="logical" name="LASYNC"> F  </i>
   <i type="logical" name="LORBITALREAL"> F  </i>
  </separator>
  <separator name="miscellaneous" >
   <i type="int" name="IDIOT">     3</i>
   <i type="int" name="PHON_NSTRUCT">    -1</i>
   <i type="logical" name="LMUSIC"> F  </i>
   <v name="POMASS">     22.99000000     16.00000000     35.45300000</v>
   <v name="DARWINR">      0.00000000      0.00000000      0.00000000</v>
   <v name="DARWINV">      1.00000000      1.00000000      1.00000000</v>
   <i type="logical" name="LCORR"> T  </i>
  </separator>
  <i type="logical" name="GGA_COMPAT"> T  </i>
  <i type="logical" name="LBERRY"> F  </i>
  <i type="int" name="ICORELEVEL">     0</i>
  <i type="logical" name="LDAU"> F  </i>
  <i type="int" name="I_CONSTRAINED_M">     0</i>
  <separator name="electronic exchange-correlation" >
   <i type="string" name="GGA">PE</i>
   <i type="int" name="VOSKOWN">     0</i>
   <i type="logical" name="LHFCALC"> F  </i>
   <i type="string" name="PRECFOCK"></i>
   <i type="logical" name="LSYMGRAD"> F  </i>
   <i type="logical" name="LHFONE"> F  </i>
   <i type="logical" name="LRHFCALC"> F  </i>
   <i type="logical" name="LTHOMAS"> F  </i>
   <i type="logical" name="LMODELHF"> F  </i>
   <i type="logical" name="LFOCKACE"> F  </i>
   <i name="ENCUT4O">     -1.00000000</i>
   <i type="int" name="EXXOEP">     0</i>
   <i type="int" name="FOURORBIT">     0</i>
   <i name="AEXX">      0.00000000</i>
   <i name="HFALPHA">      0.00000000</i>
   <i name="MCALPHA">      0.00000000</i>
   <i name="ALDAX">      1.00000000</i>
   <i name="AGGAX">      1.00000000</i>
   <i name="ALDAC">      1.00000000</i>
   <i name="AGGAC">      1.00000000</i>
   <i type="int" name="NKREDX">     1</i>
   <i type="int" name="NKREDY">     1</i>
   <i type="int" name="NKREDZ">     1</i>
   <i type="logical" name="SHIFTRED"> F  </i>
   <i type="logical" name="ODDONLY"> F  </i>
   <i type="logical" name="EVENONLY"> F  </i>
   <i type="int" name="LMAXFOCK">     0</i>
   <i type="int" name="NMAXFOCKAE">     0</i>
   <i type="logical" name="LFOCKAEDFT"> F  </i>
   <i name="HFSCREEN">      0.00000000</i>
   <i name="HFSCREENC">      0.00000000</i>
   <i type="int" name="NBANDSGWLOW">     0</i>
  </separator>
  <separator name="vdW DFT" >
   <i type="logical" name="LUSE_VDW"> F  </i>
   <i name="Zab_VDW">     -0.84910000</i>
   <i name="PARAM1">      0.12340000</i>
   <i name="PARAM2">      1.00000000</i>
   <i name="PARAM3">      0.00000000</i>
  </separator>
  <separator name="model GW" >
   <i type="int" name="MODEL_GW">     0</i>
   <i name="MODEL_EPS0">     16.45137964</i>
   <i name="MODEL_ALPHA">      1.00000000</i>
  </separator>
  <separator name="linear response parameters" >
   <i type="logical" name="LEPSILON"> F  </i>
   <i type="logical" name="LRPA"> F  </i>
   <i type="logical" name="LNABLA"> F  </i>
   <i type="logical" name="LVEL"> F  </i>
   <i type="int" name="KINTER">     0</i>
   <i name="CSHIFT">      0.10000000</i>
   <i name="OMEGAMAX">     -1.00000000</i>
   <i name="DEG_THRESHOLD">      0.00200000</i>
   <i name="RTIME">     -0.10000000</i>
   <i name="WPLASMAI">      0.00000000</i>
   <v name="DFIELD">      0.00000000      0.00000000      0.00000000</v>
   <v name="WPLASMA">      0.00000000      0.00000000      0.00000000      0.00000000      0.00000000      0.00000000      0.00000000      0.00000000      0.00000000</v>
  </separator>
  <separator name="orbital magnetization" >
   <i type="logical" name="NUCIND"> F  </i>
   <v name="MAGPOS">      0.00000000      0.00000000      0.00000000</v>
   <i type="logical" name="LNICSALL"> T  </i>
   <i type="logical" name="ORBITALMAG"> F  </i>
   <i type="logical" name="LMAGBLOCH"> F  </i>
   <i type="logical" name="LCHIMAG"> F  </i>
   <i type="logical" name="LGAUGE"> T  </i>
   <i type="int" name="MAGATOM">     0</i>
   <v name="MAGDIPOL">      0.00000000      0.00000000      0.00000000</v>
   <v name="AVECCONST">      0.00000000      0.00000000      0.00000000</v>
  </separator>
  <separator name="response functions" >
   <i type="logical" name="LFINITE_TEMPERATURE"> F  </i>
   <i type="logical" name="LADDER"> F  </i>
   <i type="logical" name="LRPAFORCE"> F  </i>
   <i type="logical" name="LFXC"> F  </i>
   <i type="logical" name="LHARTREE"> T  </i>
   <i type="int" name="IBSE">     0</i>
   <v type="int" name="KPOINT">    -1     0     0     0</v>
   <i type="logical" name="LTCTC"> F  </i>
   <i type="logical" name="LTCTE"> F  </i>
   <i type="logical" name="LTETE"> F  </i>
   <i type="logical" name="LTRIPLET"> F  </i>
   <i type="logical" name="LFXCEPS"> F  </i>
   <i type="logical" name="LFXHEG"> F  </i>
   <i type="int" name="NATURALO">     2</i>
   <i type="logical" name="LHOLEGF"> F  </i>
   <i type="logical" name="L2ORDER"> F  </i>
   <i type="logical" name="LDMP1"> F  </i>
   <i type="logical" name="LMP2LT"> F  </i>
   <i type="logical" name="LSMP2LT"> F  </i>
   <i type="logical" name="LGWLF"> F  </i>
   <i name="ENCUTGW">     -2.00000000</i>
   <i name="ENCUTGWSOFT">     -2.00000000</i>
   <i name="ENCUTLF">     -1.00000000</i>
   <i type="logical" name="LESF_SPLINES"> F  </i>
   <i type="int" name="LMAXMP2">    -1</i>
   <i name="SCISSOR">      0.00000000</i>
   <i type="int" name="NOMEGA">     0</i>
   <i type="int" name="NOMEGAR">     0</i>
   <i type="int" name="NBANDSGW">    -1</i>
   <i type="int" name="NBANDSO">    -1</i>
   <i type="int" name="NBANDSV">    -1</i>
   <i type="int" name="NELM">   150</i>
   <i type="int" name="NELMHF">     1</i>
   <i type="int" name="DIM">     3</i>
   <i type="int" name="IESPILON">     4</i>
   <i type="int" name="ANTIRES">     0</i>
   <i name="OMEGAMAX">    -30.00000000</i>
   <i name="OMEGAMIN">    -30.00000000</i>
   <i name="OMEGATL">   -200.00000000</i>
   <i type="int" name="OMEGAGRID">     0</i>
   <i name="CSHIFT">     -0.10000000</i>
   <i type="logical" name="LSELFENERGY"> F  </i>
   <i type="logical" name="LSPECTRAL"> F  </i>
   <i type="logical" name="LSPECTRALGW"> F  </i>
   <i type="logical" name="LSINGLES"> F  </i>
   <i type="logical" name="LFERMIGW"> F  </i>
   <i type="logical" name="ODDONLYGW"> F  </i>
   <i type="logical" name="EVENONLYGW"> F  </i>
   <i type="int" name="NKREDLFX">     1</i>
   <i type="int" name="NKREDLFY">     1</i>
   <i type="int" name="NKREDLFZ">     1</i>
   <i type="int" name="MAXMEM">  2800</i>
   <i type="int" name="TELESCOPE">     0</i>
   <i type="int" name="NTAUPAR">    -1</i>
   <i type="int" name="NOMEGAPAR">    -1</i>
   <i name="DAMP_NEWTON">      0.80000001</i>
   <i name="LAMBDA">      1.00000000</i>
  </separator>
  <separator name="External order field" >
   <i name="OFIELD_KAPPA">      0.00000000</i>
   <v name="OFIELD_K">      0.00000000      0.00000000      0.00000000</v>
   <i name="OFIELD_Q6_NEAR">      0.00000000</i>
   <i name="OFIELD_Q6_FAR">      0.00000000</i>
   <i name="OFIELD_A">      0.00000000</i>
  </separator>
 </parameters>
 <atominfo>
  <atoms>     160 </atoms>
  <types>       3 </types>
  <array name="atoms" >
   <dimension dim="1">ion</dimension>
   <field type="string">element</field>
   <field type="int">atomtype</field>
   <set>
    <rc><c>Na</c><c>   1</c></rc>
    <rc><c>Na</c><c>   1</c></rc>
    <rc><c>Na</c><c>   1</c></rc>
    <rc><c>Na</c><c>   1</c></rc>
    <rc><c>Na</c><c>   1</c></rc>
    <rc><c>Na</c><c>   1</c></rc>
    <rc><c>Na</c><c>   1</c></rc>
    <rc><c>Na</c><c>   1</c></rc>
    <rc><c>Na</c><c>   1</c></rc>
    <rc><c>Na</c><c>   1</c></rc>
    <rc><c>Na</c><c>   1</c></rc>
    <rc><c>Na</c><c>   1</c></rc>
    <rc><c>Na</c><c>   1</c></rc>
    <rc><c>Na</c><c>   1</c></rc>
    <rc><c>Na</c><c>   1</c></rc>
    <rc><c>Na</c><c>   1</c></rc>
    <rc><c>Na</c><c>   1</c></rc>
    <rc><c>Na</c><c>   1</c></rc>
    <rc><c>Na</c><c>   1</c></rc>
    <rc><c>Na</c><c>   1</c></rc>
    <rc><c>Na</c><c>   1</c></rc>
    <rc><c>Na</c><c>   1</c></rc>
    <rc><c>Na</c><c>   1</c></rc>
    <rc><c>Na</c><c>   1</c></rc>
    <rc><c>Na</c><c>   1</c></rc>
    <rc><c>Na</c><c>   1</c></rc>
    <rc><c>Na</c><c>   1</c></rc>
    <rc><c>Na</c><c>   1</c></rc>
    <rc><c>Na</c><c>   1</c></rc>
    <rc><c>Na</c><c>   1</c></rc>
    <rc><c>Na</c><c>   1</c></rc>
    <rc><c>Na</c><c>   1</c></rc>
    <rc><c>Na</c><c>   1</c></rc>
    <rc><c>Na</c><c>   1</c></rc>
    <rc><c>Na</c><c>   1</c></rc>
    <rc><c>Na</c><c>   1</c></rc>
    <rc><c>Na</c><c>   1</c></rc>
    <rc><c>Na</c><c>   1</c></rc>
    <rc><c>Na</c><c>   1</c></rc>
    <rc><c>Na</c><c>   1</c></rc>
    <rc><c>Na</c><c>   1</c></rc>
    <rc><c>Na</c><c>   1</c></rc>
    <rc><c>Na</c><c>   1</c></rc>
    <rc><c>Na</c><c>   1</c></rc>
    <rc><c>Na</c><c>   1</c></rc>
    <rc><c>Na</c><c>   1</c></rc>
    <rc><c>Na</c><c>   1</c></rc>
    <rc><c>Na</c><c>   1</c></rc>
    <rc><c>Na</c><c>   1</c></rc>
    <rc><c>Na</c><c>   1</c></rc>
    <rc><c>Na</c><c>   1</c></rc>
    <rc><c>Na</c><c>   1</c></rc>
    <rc><c>Na</c><c>   1</c></rc>
    <rc><c>Na</c><c>   1</c></rc>
    <rc><c>Na</c><c>   1</c></rc>
    <rc><c>Na</c><c>   1</c></rc>
    <rc><c>Na</c><c>   1</c></rc>
    <rc><c>Na</c><c>   1</c></rc>
    <rc><c>Na</c><c>   1</c></rc>
    <rc><c>Na</c><c>   1</c></rc>
    <rc><c>Na</c><c>   1</c></rc>
    <rc><c>Na</c><c>   1</c></rc>
    <rc><c>Na</c><c>   1</c></rc>
    <rc><c>Na</c><c>   1</c></rc>
    <rc><c>Na</c><c>   1</c></rc>
    <rc><c>Na</c><c>   1</c></rc>
    <rc><c>Na</c><c>   1</c></rc>
    <rc><c>Na</c><c>   1</c></rc>
    <rc><c>Na</c><c>   1</c></rc>
    <rc><c>Na</c><c>   1</c></rc>
    <rc><c>Na</c><c>   1</c></rc>
    <rc><c>Na</c><c>   1</c></rc>
    <rc><c>Na</c><c>   1</c></rc>
    <rc><c>Na</c><c>   1</c></rc>
    <rc><c>Na</c><c>   1</c></rc>
    <rc><c>Na</c><c>   1</c></rc>
    <rc><c>Na</c><c>   1</c></rc>
    <rc><c>Na</c><c>   1</c></rc>
    <rc><c>Na</c><c>   1</c></rc>
    <rc><c>Na</c><c>   1</c></rc>
    <rc><c>Na</c><c>   1</c></rc>
    <rc><c>Na</c><c>   1</c></rc>
    <rc><c>Na</c><c>   1</c></rc>
    <rc><c>Na</c><c>   1</c></rc>
    <rc><c>Na</c><c>   1</c></rc>
    <rc><c>Na</c><c>   1</c></rc>
    <rc><c>Na</c><c>   1</c></rc>
    <rc><c>Na</c><c>   1</c></rc>
    <rc><c>Na</c><c>   1</c></rc>
    <rc><c>Na</c><c>   1</c></rc>
    <rc><c>Na</c><c>   1</c></rc>
    <rc><c>Na</c><c>   1</c></rc>
    <rc><c>Na</c><c>   1</c></rc>
    <rc><c>Na</c><c>   1</c></rc>
    <rc><c>Na</c><c>   1</c></rc>
    <rc><c>Na</c><c>   1</c></rc>
    <rc><c>O </c><c>   2</c></rc>
    <rc><c>O </c><c>   2</c></rc>
    <rc><c>O </c><c>   2</c></rc>
    <rc><c>O </c><c>   2</c></rc>
    <rc><c>O </c><c>   2</c></rc>
    <rc><c>O </c><c>   2</c></rc>
    <rc><c>O </c><c>   2</c></rc>
    <rc><c>O </c><c>   2</c></rc>
    <rc><c>O </c><c>   2</c></rc>
    <rc><c>O </c><c>   2</c></rc>
    <rc><c>O </c><c>   2</c></rc>
    <rc><c>O </c><c>   2</c></rc>
    <rc><c>O </c><c>   2</c></rc>
    <rc><c>O </c><c>   2</c></rc>
    <rc><c>O </c><c>   2</c></rc>
    <rc><c>O </c><c>   2</c></rc>
    <rc><c>O </c><c>   2</c></rc>
    <rc><c>O </c><c>   2</c></rc>
    <rc><c>O </c><c>   2</c></rc>
    <rc><c>O </c><c>   2</c></rc>
    <rc><c>O </c><c>   2</c></rc>
    <rc><c>O </c><c>   2</c></rc>
    <rc><c>O </c><c>   2</c></rc>
    <rc><c>O </c><c>   2</c></rc>
    <rc><c>O </c><c>   2</c></rc>
    <rc><c>O </c><c>   2</c></rc>
    <rc><c>O </c><c>   2</c></rc>
    <rc><c>O </c><c>   2</c></rc>
    <rc><c>O </c><c>   2</c></rc>
    <rc><c>O </c><c>   2</c></rc>
    <rc><c>O </c><c>   2</c></rc>
    <rc><c>O </c><c>   2</c></rc>
    <rc><c>Cl</c><c>   3</c></rc>
    <rc><c>Cl</c><c>   3</c></rc>
    <rc><c>Cl</c><c>   3</c></rc>
    <rc><c>Cl</c><c>   3</c></rc>
    <rc><c>Cl</c><c>   3</c></rc>
    <rc><c>Cl</c><c>   3</c></rc>
    <rc><c>Cl</c><c>   3</c></rc>
    <rc><c>Cl</c><c>   3</c></rc>
    <rc><c>Cl</c><c>   3</c></rc>
    <rc><c>Cl</c><c>   3</c></rc>
    <rc><c>Cl</c><c>   3</c></rc>
    <rc><c>Cl</c><c>   3</c></rc>
    <rc><c>Cl</c><c>   3</c></rc>
    <rc><c>Cl</c><c>   3</c></rc>
    <rc><c>Cl</c><c>   3</c></rc>
    <rc><c>Cl</c><c>   3</c></rc>
    <rc><c>Cl</c><c>   3</c></rc>
    <rc><c>Cl</c><c>   3</c></rc>
    <rc><c>Cl</c><c>   3</c></rc>
    <rc><c>Cl</c><c>   3</c></rc>
    <rc><c>Cl</c><c>   3</c></rc>
    <rc><c>Cl</c><c>   3</c></rc>
    <rc><c>Cl</c><c>   3</c></rc>
    <rc><c>Cl</c><c>   3</c></rc>
    <rc><c>Cl</c><c>   3</c></rc>
    <rc><c>Cl</c><c>   3</c></rc>
    <rc><c>Cl</c><c>   3</c></rc>
    <rc><c>Cl</c><c>   3</c></rc>
    <rc><c>Cl</c><c>   3</c></rc>
    <rc><c>Cl</c><c>   3</c></rc>
    <rc><c>Cl</c><c>   3</c></rc>
    <rc><c>Cl</c><c>   3</c></rc>
   </set>
  </array>
  <array name="atomtypes" >
   <dimension dim="1">type</dimension>
   <field type="int">atomspertype</field>
   <field type="string">element</field>
   <field>mass</field>
   <field>valence</field>
   <field type="string">pseudopotential</field>
   <set>
    <rc><c>  96</c><c>Na</c><c>     22.99000000</c><c>      1.00000000</c><c>  PAW_PBE Na 08Apr2002                  </c></rc>
    <rc><c>  32</c><c>O </c><c>     16.00000000</c><c>      6.00000000</c><c>  PAW_PBE O 08Apr2002                   </c></rc>
    <rc><c>  32</c><c>Cl</c><c>     35.45300000</c><c>      7.00000000</c><c>  PAW_PBE Cl 06Sep2000                  </c></rc>
   </set>
  </array>
 </atominfo>
 <structure name="initialpos" >
  <crystal>
   <varray name="basis" >
    <v>      -8.91475688       8.91475688       0.00000000 </v>
    <v>     -17.82951376       0.00000000       0.00000000 </v>
    <v>       0.00000000       0.00000000      27.60082437 </v>
   </varray>
   <i name="volume">   4387.03457046 </i>
   <varray name="rec_basis" >
    <v>       0.00000000       0.11217356       0.00000000 </v>
    <v>      -0.05608678      -0.05608678       0.00000000 </v>
    <v>       0.00000000       0.00000000       0.03623080 </v>
   </varray>
  </crystal>
  <varray name="positions" >
   <v>       0.25000009       0.00000000       0.29813200 </v>
   <v>       0.00000005       0.12500002       0.21738481 </v>
   <v>       0.25000009       0.00000000       0.45962639 </v>
   <v>       0.00000005       0.12500002       0.37887921 </v>
   <v>       0.25000009       0.00000000       0.62112079 </v>
   <v>       0.00000005       0.12500002       0.54037361 </v>
   <v>       0.25000009       0.00000000       0.78261519 </v>
   <v>       0.00000005       0.12500002       0.70186800 </v>
   <v>       0.25000009       0.12499998       0.21738481 </v>
   <v>       0.25000009       0.25000000       0.29813200 </v>
   <v>       0.00000005       0.37500002       0.21738481 </v>
   <v>       0.25000009       0.12499998       0.37887921 </v>
   <v>       0.25000009       0.25000000       0.45962639 </v>
   <v>       0.00000005       0.37500002       0.37887921 </v>
   <v>       0.25000009       0.12499998       0.54037361 </v>
   <v>       0.25000009       0.25000000       0.62112079 </v>
   <v>       0.00000005       0.37500002       0.54037361 </v>
   <v>       0.25000009       0.12499998       0.70186800 </v>
   <v>       0.25000009       0.25000000       0.78261519 </v>
   <v>       0.00000005       0.37500002       0.70186800 </v>
   <v>       0.25000009       0.37499998       0.21738481 </v>
   <v>       0.25000009       0.50000000       0.29813200 </v>
   <v>       0.00000005       0.62500002       0.21738481 </v>
   <v>       0.25000009       0.37499998       0.37887921 </v>
   <v>       0.25000009       0.50000000       0.45962639 </v>
   <v>       0.00000005       0.62500002       0.37887921 </v>
   <v>       0.25000009       0.37499998       0.54037361 </v>
   <v>       0.25000009       0.50000000       0.62112079 </v>
   <v>       0.00000005       0.62500002       0.54037361 </v>
   <v>       0.25000009       0.37499998       0.70186800 </v>
   <v>       0.25000009       0.50000000       0.78261519 </v>
   <v>       0.00000005       0.62500002       0.70186800 </v>
   <v>       0.25000009       0.62499998       0.21738481 </v>
   <v>       0.25000009       0.75000000       0.29813200 </v>
   <v>       0.00000005       0.87500002       0.21738481 </v>
   <v>       0.25000009       0.62499998       0.37887921 </v>
   <v>       0.25000009       0.75000000       0.45962639 </v>
   <v>       0.00000005       0.87500002       0.37887921 </v>
   <v>       0.25000009       0.62499998       0.54037361 </v>
   <v>       0.25000009       0.75000000       0.62112079 </v>
   <v>       0.00000005       0.87500002       0.54037361 </v>
   <v>       0.25000009       0.62499998       0.70186800 </v>
   <v>       0.25000009       0.75000000       0.78261519 </v>
   <v>       0.00000005       0.87500002       0.70186800 </v>
   <v>       0.25000009       0.87499998       0.21738481 </v>
   <v>       0.25000009       0.87499998       0.37887921 </v>
   <v>       0.25000009       0.87499998       0.54037361 </v>
   <v>       0.25000009       0.87499998       0.70186800 </v>
   <v>       0.75000009       0.00000000       0.29813200 </v>
   <v>       0.50000005       0.12500002       0.21738481 </v>
   <v>       0.75000009       0.00000000       0.45962639 </v>
   <v>       0.50000005       0.12500002       0.37887921 </v>
   <v>       0.75000009       0.00000000       0.62112079 </v>
   <v>       0.50000005       0.12500002       0.54037361 </v>
   <v>       0.75000009       0.00000000       0.78261519 </v>
   <v>       0.50000005       0.12500002       0.70186800 </v>
   <v>       0.75000009       0.12499998       0.21738481 </v>
   <v>       0.75000009       0.25000000       0.29813200 </v>
   <v>       0.50000005       0.37500002       0.21738481 </v>
   <v>       0.75000009       0.12499998       0.37887921 </v>
   <v>       0.75000009       0.25000000       0.45962639 </v>
   <v>       0.50000005       0.37500002       0.37887921 </v>
   <v>       0.75000009       0.12499998       0.54037361 </v>
   <v>       0.75000009       0.25000000       0.62112079 </v>
   <v>       0.50000005       0.37500002       0.54037361 </v>
   <v>       0.75000009       0.12499998       0.70186800 </v>
   <v>       0.75000009       0.25000000       0.78261519 </v>
   <v>       0.50000005       0.37500002       0.70186800 </v>
   <v>       0.75000009       0.37499998       0.21738481 </v>
   <v>       0.75000009       0.50000000       0.29813200 </v>
   <v>       0.50000005       0.62500002       0.21738481 </v>
   <v>       0.75000009       0.37499998       0.37887921 </v>
   <v>       0.75000009       0.50000000       0.45962639 </v>
   <v>       0.50000005       0.62500002       0.37887921 </v>
   <v>       0.75000009       0.37499998       0.54037361 </v>
   <v>       0.75000009       0.50000000       0.62112079 </v>
   <v>       0.50000005       0.62500002       0.54037361 </v>
   <v>       0.75000009       0.37499998       0.70186800 </v>
   <v>       0.75000009       0.50000000       0.78261519 </v>
   <v>       0.50000005       0.62500002       0.70186800 </v>
   <v>       0.75000009       0.62499998       0.21738481 </v>
   <v>       0.75000009       0.75000000       0.29813200 </v>
   <v>       0.50000005       0.87500002       0.21738481 </v>
   <v>       0.75000009       0.62499998       0.37887921 </v>
   <v>       0.75000009       0.75000000       0.45962639 </v>
   <v>       0.50000005       0.87500002       0.37887921 </v>
   <v>       0.75000009       0.62499998       0.54037361 </v>
   <v>       0.75000009       0.75000000       0.62112079 </v>
   <v>       0.50000005       0.87500002       0.54037361 </v>
   <v>       0.75000009       0.62499998       0.70186800 </v>
   <v>       0.75000009       0.75000000       0.78261519 </v>
   <v>       0.50000005       0.87500002       0.70186800 </v>
   <v>       0.75000009       0.87499998       0.21738481 </v>
   <v>       0.75000009       0.87499998       0.37887921 </v>
   <v>       0.75000009       0.87499998       0.54037361 </v>
   <v>       0.75000009       0.87499998       0.70186800 </v>
   <v>       0.25000009       0.00000000       0.21738481 </v>
   <v>       0.25000009       0.00000000       0.37887921 </v>
   <v>       0.25000009       0.00000000       0.54037361 </v>
   <v>       0.25000009       0.00000000       0.70186800 </v>
   <v>       0.25000009       0.25000000       0.21738481 </v>
   <v>       0.25000009       0.25000000       0.37887921 </v>
   <v>       0.25000009       0.25000000       0.54037361 </v>
   <v>       0.25000009       0.25000000       0.70186800 </v>
   <v>       0.25000009       0.50000000       0.21738481 </v>
   <v>       0.25000009       0.50000000       0.37887921 </v>
   <v>       0.25000009       0.50000000       0.54037361 </v>
   <v>       0.25000009       0.50000000       0.70186800 </v>
   <v>       0.25000009       0.75000000       0.21738481 </v>
   <v>       0.25000009       0.75000000       0.37887921 </v>
   <v>       0.25000009       0.75000000       0.54037361 </v>
   <v>       0.25000009       0.75000000       0.70186800 </v>
   <v>       0.75000009       0.00000000       0.21738481 </v>
   <v>       0.75000009       0.00000000       0.37887921 </v>
   <v>       0.75000009       0.00000000       0.54037361 </v>
   <v>       0.75000009       0.00000000       0.70186800 </v>
   <v>       0.75000009       0.25000000       0.21738481 </v>
   <v>       0.75000009       0.25000000       0.37887921 </v>
   <v>       0.75000009       0.25000000       0.54037361 </v>
   <v>       0.75000009       0.25000000       0.70186800 </v>
   <v>       0.75000009       0.50000000       0.21738481 </v>
   <v>       0.75000009       0.50000000       0.37887921 </v>
   <v>       0.75000009       0.50000000       0.54037361 </v>
   <v>       0.75000009       0.50000000       0.70186800 </v>
   <v>       0.75000009       0.75000000       0.21738481 </v>
   <v>       0.75000009       0.75000000       0.37887921 </v>
   <v>       0.75000009       0.75000000       0.54037361 </v>
   <v>       0.75000009       0.75000000       0.70186800 </v>
   <v>       0.00000005       0.00000000       0.29813200 </v>
   <v>       0.00000005       0.00000000       0.45962639 </v>
   <v>       0.00000005       0.00000000       0.62112079 </v>
   <v>       0.00000005       0.00000000       0.78261519 </v>
   <v>       0.00000005       0.25000000       0.29813200 </v>
   <v>       0.00000005       0.25000000       0.45962639 </v>
   <v>       0.00000005       0.25000000       0.62112079 </v>
   <v>       0.00000005       0.25000000       0.78261519 </v>
   <v>       0.00000005       0.50000000       0.29813200 </v>
   <v>       0.00000005       0.50000000       0.45962639 </v>
   <v>       0.00000005       0.50000000       0.62112079 </v>
   <v>       0.00000005       0.50000000       0.78261519 </v>
   <v>       0.00000005       0.75000000       0.29813200 </v>
   <v>       0.00000005       0.75000000       0.45962639 </v>
   <v>       0.00000005       0.75000000       0.62112079 </v>
   <v>       0.00000005       0.75000000       0.78261519 </v>
   <v>       0.50000005       0.00000000       0.29813200 </v>
   <v>       0.50000005       0.00000000       0.45962639 </v>
   <v>       0.50000005       0.00000000       0.62112079 </v>
   <v>       0.50000005       0.00000000       0.78261519 </v>
   <v>       0.50000005       0.25000000       0.29813200 </v>
   <v>       0.50000005       0.25000000       0.45962639 </v>
   <v>       0.50000005       0.25000000       0.62112079 </v>
   <v>       0.50000005       0.25000000       0.78261519 </v>
   <v>       0.50000005       0.50000000       0.29813200 </v>
   <v>       0.50000005       0.50000000       0.45962639 </v>
   <v>       0.50000005       0.50000000       0.62112079 </v>
   <v>       0.50000005       0.50000000       0.78261519 </v>
   <v>       0.50000005       0.75000000       0.29813200 </v>
   <v>       0.50000005       0.75000000       0.45962639 </v>
   <v>       0.50000005       0.75000000       0.62112079 </v>
   <v>       0.50000005       0.75000000       0.78261519 </v>
  </varray>
 </structure>
 <calculation>
  <scstep>
   <time name="dav">    3.43    3.48</time>
   <time name="total">    3.58    3.64</time>
   <dipole>
    <v name="dipole">      0.00000000       0.00000000       0.00934888 </v>
    <i name="Tr[quadrupol]"> -22275.77092055 </i>
    <i name="Echarged">      0.00000000 </i>
    <i name="Edipol_quadrupol">      0.00000000 </i>
    <i name="Eion">      0.00000000 </i>
   </dipole>
   <energy>
    <i name="alphaZ">     -6.06082711 </i>
    <i name="ewald">  26346.76587164 </i>
    <i name="hartreedc"> -51244.38893002 </i>
    <i name="XCdc">  -1990.06165094 </i>
    <i name="pawpsdc">  25326.51111861 </i>
    <i name="pawaedc"> -21786.89270365 </i>
    <i name="eentropy">     -0.16125135 </i>
    <i name="bandstr">    162.09909763 </i>
    <i name="atom">  27438.53791910 </i>
    <i name="e_fr_energy">   4246.34864390 </i>
    <i name="e_wo_entrp">   4246.50989525 </i>
    <i name="e_0_energy">   4246.42926958 </i>
   </energy>
  </scstep>
  <scstep>
   <time name="dav">    4.42    4.43</time>
   <time name="total">    4.43    4.43</time>
   <dipole>
    <v name="dipole">      0.00000000       0.00000000       0.00934888 </v>
    <i name="Tr[quadrupol]"> -22275.77092055 </i>
    <i name="Echarged">      0.00000000 </i>
    <i name="Edipol_quadrupol">      0.00000000 </i>
    <i name="Eion">      0.00000000 </i>
   </dipole>
   <energy>
    <i name="e_fr_energy">    336.31441911 </i>
    <i name="e_wo_entrp">    336.31441911 </i>
    <i name="e_0_energy">    336.31441911 </i>
   </energy>
  </scstep>
  <scstep>
   <time name="dav">    4.31    4.31</time>
   <time name="total">    4.31    4.31</time>
   <dipole>
    <v name="dipole">      0.00000000       0.00000000       0.00934888 </v>
    <i name="Tr[quadrupol]"> -22275.77092055 </i>
    <i name="Echarged">      0.00000000 </i>
    <i name="Edipol_quadrupol">      0.00000000 </i>
    <i name="Eion">      0.00000000 </i>
   </dipole>
   <energy>
    <i name="e_fr_energy">   -704.63869755 </i>
    <i name="e_wo_entrp">   -704.63869755 </i>
    <i name="e_0_energy">   -704.63869755 </i>
   </energy>
  </scstep>
  <scstep>
   <time name="dav">    3.68    3.68</time>
   <time name="total">    3.68    3.68</time>
   <dipole>
    <v name="dipole">      0.00000000       0.00000000       0.00934888 </v>
    <i name="Tr[quadrupol]"> -22275.77092055 </i>
    <i name="Echarged">      0.00000000 </i>
    <i name="Edipol_quadrupol">      0.00000000 </i>
    <i name="Eion">      0.00000000 </i>
   </dipole>
   <energy>
    <i name="e_fr_energy">   -736.29087876 </i>
    <i name="e_wo_entrp">   -736.29087876 </i>
    <i name="e_0_energy">   -736.29087876 </i>
   </energy>
  </scstep>
  <scstep>
   <time name="dav">    4.15    4.16</time>
   <time name="total">    4.24    4.25</time>
   <dipole>
    <v name="dipole">      0.00000000       0.00000000       0.00934888 </v>
    <i name="Tr[quadrupol]"> -22275.77092055 </i>
    <i name="Echarged">      0.00000000 </i>
    <i name="Edipol_quadrupol">      0.00000000 </i>
    <i name="Eion">      0.00000000 </i>
   </dipole>
   <energy>
    <i name="e_fr_energy">   -737.37033020 </i>
    <i name="e_wo_entrp">   -737.37033020 </i>
    <i name="e_0_energy">   -737.37033020 </i>
   </energy>
  </scstep>
  <scstep>
   <time name="diag">    0.60    0.60</time>
   <time name="diis">    1.36    1.36</time>
   <time name="orth">    0.24    0.24</time>
   <time name="total">    2.44    2.44</time>
   <dipole>
    <v name="dipole">      0.00000000       0.00000000      -0.15430895 </v>
    <i name="Tr[quadrupol]"> -22294.27939193 </i>
    <i name="Echarged">      0.00000000 </i>
    <i name="Edipol_quadrupol">      0.00000000 </i>
    <i name="Eion">      0.00000000 </i>
   </dipole>
   <energy>
    <i name="e_fr_energy">   -579.38690471 </i>
    <i name="e_wo_entrp">   -579.38690471 </i>
    <i name="e_0_energy">   -579.38690471 </i>
   </energy>
  </scstep>
  <scstep>
   <time name="diag">    0.59    0.59</time>
   <time name="diis">    1.55    1.55</time>
   <time name="orth">    0.24    0.24</time>
   <time name="total">    2.61    2.61</time>
   <dipole>
    <v name="dipole">      0.00000000       0.00000000      -0.15799809 </v>
    <i name="Tr[quadrupol]"> -22307.65212963 </i>
    <i name="Echarged">      0.00000000 </i>
    <i name="Edipol_quadrupol">      0.00000000 </i>
    <i name="Eion">      0.00000000 </i>
   </dipole>
   <energy>
    <i name="e_fr_energy">   -580.86326466 </i>
    <i name="e_wo_entrp">   -580.86326466 </i>
    <i name="e_0_energy">   -580.86326466 </i>
   </energy>
  </scstep>
  <scstep>
   <time name="diag">    0.59    0.59</time>
   <time name="diis">    1.37    1.37</time>
   <time name="orth">    0.25    0.25</time>
   <time name="total">    2.43    2.43</time>
   <dipole>
    <v name="dipole">      0.00000000       0.00000000      -0.21587193 </v>
    <i name="Tr[quadrupol]"> -22329.43513053 </i>
    <i name="Echarged">      0.00000000 </i>
    <i name="Edipol_quadrupol">      0.00000000 </i>
    <i name="Eion">      0.00000000 </i>
   </dipole>
   <energy>
    <i name="e_fr_energy">   -576.86023561 </i>
    <i name="e_wo_entrp">   -576.86023561 </i>
    <i name="e_0_energy">   -576.86023561 </i>
   </energy>
  </scstep>
  <scstep>
   <time name="diag">    0.59    0.59</time>
   <time name="diis">    1.44    1.45</time>
   <time name="orth">    0.24    0.24</time>
   <time name="total">    2.50    2.51</time>
   <dipole>
    <v name="dipole">      0.00000000       0.00000000      -0.28808894 </v>
    <i name="Tr[quadrupol]"> -22353.36395347 </i>
    <i name="Echarged">      0.00000000 </i>
    <i name="Edipol_quadrupol">      0.00000000 </i>
    <i name="Eion">      0.00000000 </i>
   </dipole>
   <energy>
    <i name="e_fr_energy">   -574.20290549 </i>
    <i name="e_wo_entrp">   -574.20290549 </i>
    <i name="e_0_energy">   -574.20290549 </i>
   </energy>
  </scstep>
  <scstep>
   <time name="diag">    0.59    0.60</time>
   <time name="diis">    1.61    1.61</time>
   <time name="orth">    0.24    0.24</time>
   <time name="total">    2.68    2.70</time>
   <dipole>
    <v name="dipole">      0.00000000       0.00000000      -0.28940355 </v>
    <i name="Tr[quadrupol]"> -22356.11298462 </i>
    <i name="Echarged">      0.00000000 </i>
    <i name="Edipol_quadrupol">      0.00000000 </i>
    <i name="Eion">      0.00000000 </i>
   </dipole>
   <energy>
    <i name="e_fr_energy">   -574.44909218 </i>
    <i name="e_wo_entrp">   -574.44909218 </i>
    <i name="e_0_energy">   -574.44909218 </i>
   </energy>
  </scstep>
  <scstep>
   <time name="diag">    0.58    0.58</time>
   <time name="diis">    1.37    1.37</time>
   <time name="orth">    0.24    0.24</time>
   <time name="total">    2.43    2.43</time>
   <dipole>
    <v name="dipole">      0.00000000       0.00000000      -0.29920467 </v>
    <i name="Tr[quadrupol]"> -22367.25517976 </i>
    <i name="Echarged">      0.00000000 </i>
    <i name="Edipol_quadrupol">      0.00000000 </i>
    <i name="Eion">      0.00000000 </i>
   </dipole>
   <energy>
    <i name="e_fr_energy">   -574.48997040 </i>
    <i name="e_wo_entrp">   -574.48997040 </i>
    <i name="e_0_energy">   -574.48997040 </i>
   </energy>
  </scstep>
  <scstep>
   <time name="diag">    0.60    0.60</time>
   <time name="diis">    1.42    1.42</time>
   <time name="orth">    0.24    0.24</time>
   <time name="total">    2.49    2.49</time>
   <dipole>
    <v name="dipole">      0.00000000       0.00000000      -0.30648028 </v>
    <i name="Tr[quadrupol]"> -22375.07120990 </i>
    <i name="Echarged">      0.00000000 </i>
    <i name="Edipol_quadrupol">      0.00000000 </i>
    <i name="Eion">      0.00000000 </i>
   </dipole>
   <energy>
    <i name="e_fr_energy">   -574.41284896 </i>
    <i name="e_wo_entrp">   -574.41284896 </i>
    <i name="e_0_energy">   -574.41284896 </i>
   </energy>
  </scstep>
  <scstep>
   <time name="diag">    0.58    0.58</time>
   <time name="diis">    1.44    1.44</time>
   <time name="orth">    0.24    0.24</time>
   <time name="total">    2.49    2.49</time>
   <dipole>
    <v name="dipole">      0.00000000       0.00000000      -0.31727268 </v>
    <i name="Tr[quadrupol]"> -22378.77040421 </i>
    <i name="Echarged">      0.00000000 </i>
    <i name="Edipol_quadrupol">      0.00000000 </i>
    <i name="Eion">      0.00000000 </i>
   </dipole>
   <energy>
    <i name="e_fr_energy">   -574.38873830 </i>
    <i name="e_wo_entrp">   -574.38873830 </i>
    <i name="e_0_energy">   -574.38873830 </i>
   </energy>
  </scstep>
  <scstep>
   <time name="diag">    0.58    0.58</time>
   <time name="diis">    1.51    1.51</time>
   <time name="orth">    0.24    0.24</time>
   <time name="total">    2.56    2.56</time>
   <dipole>
    <v name="dipole">      0.00000000       0.00000000      -0.34327997 </v>
    <i name="Tr[quadrupol]"> -22386.41873661 </i>
    <i name="Echarged">      0.00000000 </i>
    <i name="Edipol_quadrupol">      0.00000000 </i>
    <i name="Eion">      0.00000000 </i>
   </dipole>
   <energy>
    <i name="e_fr_energy">   -574.38866538 </i>
    <i name="e_wo_entrp">   -574.38866538 </i>
    <i name="e_0_energy">   -574.38866538 </i>
   </energy>
  </scstep>
  <scstep>
   <time name="diag">    0.59    0.59</time>
   <time name="diis">    1.62    1.62</time>
   <time name="orth">    0.24    0.24</time>
   <time name="total">    2.67    2.67</time>
   <dipole>
    <v name="dipole">      0.00000000       0.00000000      -0.35563414 </v>
    <i name="Tr[quadrupol]"> -22389.13333461 </i>
    <i name="Echarged">      0.00000000 </i>
    <i name="Edipol_quadrupol">      0.00000000 </i>
    <i name="Eion">      0.00000000 </i>
   </dipole>
   <energy>
    <i name="e_fr_energy">   -574.39821084 </i>
    <i name="e_wo_entrp">   -574.39821084 </i>
    <i name="e_0_energy">   -574.39821084 </i>
   </energy>
  </scstep>
  <scstep>
   <time name="diag">    0.59    0.59</time>
   <time name="diis">    1.37    1.37</time>
   <time name="orth">    0.24    0.24</time>
   <time name="total">    2.43    2.43</time>
   <dipole>
    <v name="dipole">      0.00000000       0.00000000      -0.36175950 </v>
    <i name="Tr[quadrupol]"> -22390.72512296 </i>
    <i name="Echarged">      0.00000000 </i>
    <i name="Edipol_quadrupol">      0.00000000 </i>
    <i name="Eion">      0.00000000 </i>
   </dipole>
   <energy>
    <i name="e_fr_energy">   -574.39265888 </i>
    <i name="e_wo_entrp">   -574.39265888 </i>
    <i name="e_0_energy">   -574.39265888 </i>
   </energy>
  </scstep>
  <scstep>
   <time name="diag">    0.59    0.59</time>
   <time name="diis">    1.54    1.54</time>
   <time name="orth">    0.24    0.24</time>
   <time name="total">    2.60    2.60</time>
   <dipole>
    <v name="dipole">      0.00000000       0.00000000      -0.37480316 </v>
    <i name="Tr[quadrupol]"> -22393.39447893 </i>
    <i name="Echarged">      0.00000000 </i>
    <i name="Edipol_quadrupol">      0.00000000 </i>
    <i name="Eion">      0.00000000 </i>
   </dipole>
   <energy>
    <i name="e_fr_energy">   -574.39871789 </i>
    <i name="e_wo_entrp">   -574.39871789 </i>
    <i name="e_0_energy">   -574.39871789 </i>
   </energy>
  </scstep>
  <scstep>
   <time name="diag">    0.58    0.58</time>
   <time name="diis">    1.39    1.39</time>
   <time name="orth">    0.24    0.24</time>
   <time name="total">    2.47    2.48</time>
   <dipole>
    <v name="dipole">      0.00000000       0.00000000      -0.37559652 </v>
    <i name="Tr[quadrupol]"> -22393.52935351 </i>
    <i name="Echarged">      0.00000000 </i>
    <i name="Edipol_quadrupol">      0.00000000 </i>
    <i name="Eion">      0.00000000 </i>
   </dipole>
   <energy>
    <i name="e_fr_energy">   -574.39912410 </i>
    <i name="e_wo_entrp">   -574.39912410 </i>
    <i name="e_0_energy">   -574.39912410 </i>
   </energy>
  </scstep>
  <scstep>
   <time name="diag">    0.59    0.59</time>
   <time name="diis">    1.38    1.38</time>
   <time name="orth">    0.24    0.24</time>
   <time name="total">    2.45    2.45</time>
   <dipole>
    <v name="dipole">      0.00000000       0.00000000      -0.38037847 </v>
    <i name="Tr[quadrupol]"> -22394.22471568 </i>
    <i name="Echarged">      0.00000000 </i>
    <i name="Edipol_quadrupol">      0.00000000 </i>
    <i name="Eion">      0.00000000 </i>
   </dipole>
   <energy>
    <i name="e_fr_energy">   -574.40423267 </i>
    <i name="e_wo_entrp">   -574.40423267 </i>
    <i name="e_0_energy">   -574.40423267 </i>
   </energy>
  </scstep>
  <scstep>
   <time name="diag">    0.59    0.59</time>
   <time name="diis">    1.41    1.41</time>
   <time name="orth">    0.24    0.24</time>
   <time name="total">    2.47    2.47</time>
   <dipole>
    <v name="dipole">      0.00000000       0.00000000      -0.38463716 </v>
    <i name="Tr[quadrupol]"> -22394.63361045 </i>
    <i name="Echarged">      0.00000000 </i>
    <i name="Edipol_quadrupol">      0.00000000 </i>
    <i name="Eion">      0.00000000 </i>
   </dipole>
   <energy>
    <i name="e_fr_energy">   -574.40773275 </i>
    <i name="e_wo_entrp">   -574.40773275 </i>
    <i name="e_0_energy">   -574.40773275 </i>
   </energy>
  </scstep>
  <scstep>
   <time name="diag">    0.58    0.58</time>
   <time name="diis">    1.59    1.59</time>
   <time name="orth">    0.24    0.24</time>
   <time name="total">    2.65    2.65</time>
   <dipole>
    <v name="dipole">      0.00000000       0.00000000      -0.38474541 </v>
    <i name="Tr[quadrupol]"> -22394.65624258 </i>
    <i name="Echarged">      0.00000000 </i>
    <i name="Edipol_quadrupol">      0.00000000 </i>
    <i name="Eion">      0.00000000 </i>
   </dipole>
   <energy>
    <i name="e_fr_energy">   -574.40821422 </i>
    <i name="e_wo_entrp">   -574.40821422 </i>
    <i name="e_0_energy">   -574.40821422 </i>
   </energy>
  </scstep>
  <scstep>
   <time name="diag">    0.59    0.59</time>
   <time name="diis">    1.45    1.45</time>
   <time name="orth">    0.24    0.24</time>
   <time name="total">    2.51    2.51</time>
   <dipole>
    <v name="dipole">      0.00000000       0.00000000      -0.38468014 </v>
    <i name="Tr[quadrupol]"> -22394.65948557 </i>
    <i name="Echarged">      0.00000000 </i>
    <i name="Edipol_quadrupol">      0.00000000 </i>
    <i name="Eion">      0.00000000 </i>
   </dipole>
   <energy>
    <i name="e_fr_energy">   -574.40861189 </i>
    <i name="e_wo_entrp">   -574.40861189 </i>
    <i name="e_0_energy">   -574.40861189 </i>
   </energy>
  </scstep>
  <scstep>
   <time name="diag">    0.59    0.59</time>
   <time name="diis">    1.47    1.47</time>
   <time name="orth">    0.24    0.24</time>
   <time name="total">    2.53    2.53</time>
   <dipole>
    <v name="dipole">      0.00000000       0.00000000      -0.38435339 </v>
    <i name="Tr[quadrupol]"> -22394.68012785 </i>
    <i name="Echarged">      0.00000000 </i>
    <i name="Edipol_quadrupol">      0.00000000 </i>
    <i name="Eion">      0.00000000 </i>
   </dipole>
   <energy>
    <i name="e_fr_energy">   -574.40868726 </i>
    <i name="e_wo_entrp">   -574.40868726 </i>
    <i name="e_0_energy">   -574.40868726 </i>
   </energy>
  </scstep>
  <scstep>
   <time name="diag">    0.60    0.60</time>
   <time name="diis">    1.56    1.56</time>
   <time name="orth">    0.24    0.24</time>
   <time name="total">    2.63    2.63</time>
   <dipole>
    <v name="dipole">      0.00000000       0.00000000      -0.38400002 </v>
    <i name="Tr[quadrupol]"> -22394.68605618 </i>
    <i name="Echarged">      0.00000000 </i>
    <i name="Edipol_quadrupol">      0.00000000 </i>
    <i name="Eion">      0.00000000 </i>
   </dipole>
   <energy>
    <i name="e_fr_energy">   -574.40870539 </i>
    <i name="e_wo_entrp">   -574.40870539 </i>
    <i name="e_0_energy">   -574.40870539 </i>
   </energy>
  </scstep>
  <scstep>
   <time name="diag">    0.58    0.58</time>
   <time name="diis">    1.48    1.48</time>
   <time name="orth">    0.24    0.24</time>
   <time name="total">    2.54    2.54</time>
   <dipole>
    <v name="dipole">      0.00000000       0.00000000      -0.38374078 </v>
    <i name="Tr[quadrupol]"> -22394.69190710 </i>
    <i name="Echarged">      0.00000000 </i>
    <i name="Edipol_quadrupol">      0.00000000 </i>
    <i name="Eion">      0.00000000 </i>
   </dipole>
   <energy>
    <i name="e_fr_energy">   -574.40871449 </i>
    <i name="e_wo_entrp">   -574.40871449 </i>
    <i name="e_0_energy">   -574.40871449 </i>
   </energy>
  </scstep>
  <scstep>
   <time name="diag">    0.59    0.59</time>
   <time name="diis">    1.37    1.37</time>
   <time name="orth">    0.24    0.24</time>
   <time name="total">    2.43    2.43</time>
   <dipole>
    <v name="dipole">      0.00000000       0.00000000      -0.38358714 </v>
    <i name="Tr[quadrupol]"> -22394.68760403 </i>
    <i name="Echarged">      0.00000000 </i>
    <i name="Edipol_quadrupol">      0.00000000 </i>
    <i name="Eion">      0.00000000 </i>
   </dipole>
   <energy>
    <i name="e_fr_energy">   -574.40871753 </i>
    <i name="e_wo_entrp">   -574.40871753 </i>
    <i name="e_0_energy">   -574.40871753 </i>
   </energy>
  </scstep>
  <scstep>
   <time name="diag">    0.59    0.59</time>
   <time name="diis">    1.45    1.45</time>
   <time name="orth">    0.24    0.24</time>
   <time name="total">    2.51    2.51</time>
   <dipole>
    <v name="dipole">      0.00000000       0.00000000      -0.38343392 </v>
    <i name="Tr[quadrupol]"> -22394.68603562 </i>
    <i name="Echarged">      0.00000000 </i>
    <i name="Edipol_quadrupol">      0.00000000 </i>
    <i name="Eion">      0.00000000 </i>
   </dipole>
   <energy>
    <i name="e_fr_energy">   -574.40871875 </i>
    <i name="e_wo_entrp">   -574.40871875 </i>
    <i name="e_0_energy">   -574.40871875 </i>
   </energy>
  </scstep>
  <scstep>
   <time name="diag">    0.59    0.59</time>
   <time name="diis">    1.24    1.24</time>
   <time name="orth">    0.24    0.24</time>
   <time name="total">    2.30    2.30</time>
   <dipole>
    <v name="dipole">      0.00000000       0.00000000      -0.38335426 </v>
    <i name="Tr[quadrupol]"> -22394.68722305 </i>
    <i name="Echarged">      0.00000000 </i>
    <i name="Edipol_quadrupol">      0.00000000 </i>
    <i name="Eion">      0.00000000 </i>
   </dipole>
   <energy>
    <i name="e_fr_energy">   -574.40871899 </i>
    <i name="e_wo_entrp">   -574.40871899 </i>
    <i name="e_0_energy">   -574.40871899 </i>
   </energy>
  </scstep>
  <scstep>
   <time name="diag">    0.59    0.59</time>
   <time name="diis">    1.23    1.23</time>
   <time name="orth">    0.24    0.24</time>
   <time name="total">    2.28    2.28</time>
   <dipole>
    <v name="dipole">      0.00000000       0.00000000      -0.38331080 </v>
    <i name="Tr[quadrupol]"> -22394.68766803 </i>
    <i name="Echarged">      0.00000000 </i>
    <i name="Edipol_quadrupol">      0.00000000 </i>
    <i name="Eion">      0.00000000 </i>
   </dipole>
   <energy>
    <i name="e_fr_energy">   -574.40871908 </i>
    <i name="e_wo_entrp">   -574.40871908 </i>
    <i name="e_0_energy">   -574.40871908 </i>
   </energy>
  </scstep>
  <scstep>
   <time name="diag">    0.59    0.59</time>
   <time name="diis">    0.96    0.96</time>
   <time name="orth">    0.24    0.24</time>
   <time name="total">    2.02    2.02</time>
   <dipole>
    <v name="dipole">      0.00000000       0.00000000      -0.38329101 </v>
    <i name="Tr[quadrupol]"> -22394.68751158 </i>
    <i name="Echarged">      0.00000000 </i>
    <i name="Edipol_quadrupol">      0.00000000 </i>
    <i name="Eion">      0.00000000 </i>
   </dipole>
   <energy>
    <i name="e_fr_energy">   -574.40871905 </i>
    <i name="e_wo_entrp">   -574.40871905 </i>
    <i name="e_0_energy">   -574.40871905 </i>
   </energy>
  </scstep>
  <scstep>
   <time name="diag">    0.59    0.59</time>
   <time name="diis">    0.86    0.86</time>
   <time name="orth">    0.24    0.24</time>
   <time name="total">    1.83    1.83</time>
   <dipole>
    <v name="dipole">      0.00000000       0.00000000      -0.38327847 </v>
    <i name="Tr[quadrupol]"> -22394.68739458 </i>
    <i name="Echarged">      0.00000000 </i>
    <i name="Edipol_quadrupol">      0.00000000 </i>
    <i name="Eion">      0.00000000 </i>
   </dipole>
   <energy>
    <i name="alphaZ">     -5.24640744 </i>
    <i name="ewald">  26346.76587164 </i>
    <i name="hartreedc"> -53185.61323434 </i>
    <i name="XCdc">  -1892.28981149 </i>
    <i name="pawpsdc">  33291.01695708 </i>
    <i name="pawaedc"> -29764.21844204 </i>
    <i name="eentropy">     -0.00000000 </i>
    <i name="bandstr">  -2803.36157156 </i>
    <i name="atom">  27438.53791910 </i>
    <i name="e_fr_energy">   -574.40871906 </i>
    <i name="e_wo_entrp">   -574.40871906 </i>
    <i name="e_0_energy">   -574.40871906 </i>
   </energy>
  </scstep>
  <structure>
   <crystal>
    <varray name="basis" >
     <v>      -8.91475688       8.91475688       0.00000000 </v>
     <v>     -17.82951376       0.00000000       0.00000000 </v>
     <v>       0.00000000       0.00000000      27.60082437 </v>
    </varray>
    <i name="volume">   4387.03457046 </i>
    <varray name="rec_basis" >
     <v>       0.00000000       0.11217356       0.00000000 </v>
     <v>      -0.05608678      -0.05608678       0.00000000 </v>
     <v>       0.00000000       0.00000000       0.03623080 </v>
    </varray>
   </crystal>
   <varray name="positions" >
    <v>       0.25000009       0.00000000       0.29813200 </v>
    <v>       0.00000005       0.12500002       0.21738481 </v>
    <v>       0.25000009       0.00000000       0.45962639 </v>
    <v>       0.00000005       0.12500002       0.37887921 </v>
    <v>       0.25000009       0.00000000       0.62112079 </v>
    <v>       0.00000005       0.12500002       0.54037361 </v>
    <v>       0.25000009       0.00000000       0.78261519 </v>
    <v>       0.00000005       0.12500002       0.70186800 </v>
    <v>       0.25000009       0.12499998       0.21738481 </v>
    <v>       0.25000009       0.25000000       0.29813200 </v>
    <v>       0.00000005       0.37500002       0.21738481 </v>
    <v>       0.25000009       0.12499998       0.37887921 </v>
    <v>       0.25000009       0.25000000       0.45962639 </v>
    <v>       0.00000005       0.37500002       0.37887921 </v>
    <v>       0.25000009       0.12499998       0.54037361 </v>
    <v>       0.25000009       0.25000000       0.62112079 </v>
    <v>       0.00000005       0.37500002       0.54037361 </v>
    <v>       0.25000009       0.12499998       0.70186800 </v>
    <v>       0.25000009       0.25000000       0.78261519 </v>
    <v>       0.00000005       0.37500002       0.70186800 </v>
    <v>       0.25000009       0.37499998       0.21738481 </v>
    <v>       0.25000009       0.50000000       0.29813200 </v>
    <v>       0.00000005       0.62500002       0.21738481 </v>
    <v>       0.25000009       0.37499998       0.37887921 </v>
    <v>       0.25000009       0.50000000       0.45962639 </v>
    <v>       0.00000005       0.62500002       0.37887921 </v>
    <v>       0.25000009       0.37499998       0.54037361 </v>
    <v>       0.25000009       0.50000000       0.62112079 </v>
    <v>       0.00000005       0.62500002       0.54037361 </v>
    <v>       0.25000009       0.37499998       0.70186800 </v>
    <v>       0.25000009       0.50000000       0.78261519 </v>
    <v>       0.00000005       0.62500002       0.70186800 </v>
    <v>       0.25000009       0.62499998       0.21738481 </v>
    <v>       0.25000009       0.75000000       0.29813200 </v>
    <v>       0.00000005       0.87500002       0.21738481 </v>
    <v>       0.25000009       0.62499998       0.37887921 </v>
    <v>       0.25000009       0.75000000       0.45962639 </v>
    <v>       0.00000005       0.87500002       0.37887921 </v>
    <v>       0.25000009       0.62499998       0.54037361 </v>
    <v>       0.25000009       0.75000000       0.62112079 </v>
    <v>       0.00000005       0.87500002       0.54037361 </v>
    <v>       0.25000009       0.62499998       0.70186800 </v>
    <v>       0.25000009       0.75000000       0.78261519 </v>
    <v>       0.00000005       0.87500002       0.70186800 </v>
    <v>       0.25000009       0.87499998       0.21738481 </v>
    <v>       0.25000009       0.87499998       0.37887921 </v>
    <v>       0.25000009       0.87499998       0.54037361 </v>
    <v>       0.25000009       0.87499998       0.70186800 </v>
    <v>       0.75000009       0.00000000       0.29813200 </v>
    <v>       0.50000005       0.12500002       0.21738481 </v>
    <v>       0.75000009       0.00000000       0.45962639 </v>
    <v>       0.50000005       0.12500002       0.37887921 </v>
    <v>       0.75000009       0.00000000       0.62112079 </v>
    <v>       0.50000005       0.12500002       0.54037361 </v>
    <v>       0.75000009       0.00000000       0.78261519 </v>
    <v>       0.50000005       0.12500002       0.70186800 </v>
    <v>       0.75000009       0.12499998       0.21738481 </v>
    <v>       0.75000009       0.25000000       0.29813200 </v>
    <v>       0.50000005       0.37500002       0.21738481 </v>
    <v>       0.75000009       0.12499998       0.37887921 </v>
    <v>       0.75000009       0.25000000       0.45962639 </v>
    <v>       0.50000005       0.37500002       0.37887921 </v>
    <v>       0.75000009       0.12499998       0.54037361 </v>
    <v>       0.75000009       0.25000000       0.62112079 </v>
    <v>       0.50000005       0.37500002       0.54037361 </v>
    <v>       0.75000009       0.12499998       0.70186800 </v>
    <v>       0.75000009       0.25000000       0.78261519 </v>
    <v>       0.50000005       0.37500002       0.70186800 </v>
    <v>       0.75000009       0.37499998       0.21738481 </v>
    <v>       0.75000009       0.50000000       0.29813200 </v>
    <v>       0.50000005       0.62500002       0.21738481 </v>
    <v>       0.75000009       0.37499998       0.37887921 </v>
    <v>       0.75000009       0.50000000       0.45962639 </v>
    <v>       0.50000005       0.62500002       0.37887921 </v>
    <v>       0.75000009       0.37499998       0.54037361 </v>
    <v>       0.75000009       0.50000000       0.62112079 </v>
    <v>       0.50000005       0.62500002       0.54037361 </v>
    <v>       0.75000009       0.37499998       0.70186800 </v>
    <v>       0.75000009       0.50000000       0.78261519 </v>
    <v>       0.50000005       0.62500002       0.70186800 </v>
    <v>       0.75000009       0.62499998       0.21738481 </v>
    <v>       0.75000009       0.75000000       0.29813200 </v>
    <v>       0.50000005       0.87500002       0.21738481 </v>
    <v>       0.75000009       0.62499998       0.37887921 </v>
    <v>       0.75000009       0.75000000       0.45962639 </v>
    <v>       0.50000005       0.87500002       0.37887921 </v>
    <v>       0.75000009       0.62499998       0.54037361 </v>
    <v>       0.75000009       0.75000000       0.62112079 </v>
    <v>       0.50000005       0.87500002       0.54037361 </v>
    <v>       0.75000009       0.62499998       0.70186800 </v>
    <v>       0.75000009       0.75000000       0.78261519 </v>
    <v>       0.50000005       0.87500002       0.70186800 </v>
    <v>       0.75000009       0.87499998       0.21738481 </v>
    <v>       0.75000009       0.87499998       0.37887921 </v>
    <v>       0.75000009       0.87499998       0.54037361 </v>
    <v>       0.75000009       0.87499998       0.70186800 </v>
    <v>       0.25000009       0.00000000       0.21738481 </v>
    <v>       0.25000009       0.00000000       0.37887921 </v>
    <v>       0.25000009       0.00000000       0.54037361 </v>
    <v>       0.25000009       0.00000000       0.70186800 </v>
    <v>       0.25000009       0.25000000       0.21738481 </v>
    <v>       0.25000009       0.25000000       0.37887921 </v>
    <v>       0.25000009       0.25000000       0.54037361 </v>
    <v>       0.25000009       0.25000000       0.70186800 </v>
    <v>       0.25000009       0.50000000       0.21738481 </v>
    <v>       0.25000009       0.50000000       0.37887921 </v>
    <v>       0.25000009       0.50000000       0.54037361 </v>
    <v>       0.25000009       0.50000000       0.70186800 </v>
    <v>       0.25000009       0.75000000       0.21738481 </v>
    <v>       0.25000009       0.75000000       0.37887921 </v>
    <v>       0.25000009       0.75000000       0.54037361 </v>
    <v>       0.25000009       0.75000000       0.70186800 </v>
[...]
       <r>    -7.6338     0.0000   128.0000 </r>
       <r>    -7.5566     0.0000   128.0000 </r>
       <r>    -7.4795     0.0000   128.0000 </r>
       <r>    -7.4023     0.0000   128.0000 </r>
       <r>    -7.3251     0.0000   128.0000 </r>
       <r>    -7.2479     0.0000   128.0000 </r>
       <r>    -7.1707     0.0000   128.0000 </r>
       <r>    -7.0935     0.0000   128.0000 </r>
       <r>    -7.0163     0.0000   128.0000 </r>
       <r>    -6.9391     0.0000   128.0000 </r>
       <r>    -6.8619     0.0000   128.0000 </r>
       <r>    -6.7847     0.0000   128.0000 </r>
       <r>    -6.7076     0.0000   128.0000 </r>
       <r>    -6.6304     0.0000   128.0000 </r>
       <r>    -6.5532     0.0000   128.0000 </r>
       <r>    -6.4760     0.0000   128.0000 </r>
       <r>    -6.3988     0.0000   128.0000 </r>
       <r>    -6.3216     0.0000   128.0000 </r>
       <r>    -6.2444     0.0000   128.0000 </r>
       <r>    -6.1672     0.0000   128.0000 </r>
       <r>    -6.0900     0.0000   128.0000 </r>
       <r>    -6.0128     0.0000   128.0000 </r>
       <r>    -5.9356     0.0000   128.0000 </r>
       <r>    -5.8585     0.0000   128.0000 </r>
       <r>    -5.7813     0.0000   128.0000 </r>
       <r>    -5.7041     0.0000   128.0000 </r>
       <r>    -5.6269     0.0000   128.0000 </r>
       <r>    -5.5497     0.0000   128.0000 </r>
       <r>    -5.4725     0.0000   128.0000 </r>
       <r>    -5.3953     0.0000   128.0000 </r>
       <r>    -5.3181     0.0000   128.0000 </r>
       <r>    -5.2409     0.0000   128.0000 </r>
       <r>    -5.1637     0.0000   128.0000 </r>
       <r>    -5.0866     0.0000   128.0000 </r>
       <r>    -5.0094     0.0000   128.0000 </r>
       <r>    -4.9322     0.0000   128.0000 </r>
       <r>    -4.8550     0.0000   128.0000 </r>
       <r>    -4.7778     0.0000   128.0000 </r>
       <r>    -4.7006     0.0000   128.0000 </r>
       <r>    -4.6234     0.0000   128.0000 </r>
       <r>    -4.5462     0.0000   128.0000 </r>
       <r>    -4.4690     0.0000   128.0000 </r>
       <r>    -4.3918     0.0009   128.0001 </r>
       <r>    -4.3146     0.0663   128.0052 </r>
       <r>    -4.2375     1.7428   128.1397 </r>
       <r>    -4.1603    17.2904   129.4744 </r>
       <r>    -4.0831    72.2335   135.0501 </r>
       <r>    -4.0059   147.1422   146.4081 </r>
       <r>    -3.9287   177.1145   160.0796 </r>
       <r>    -3.8515   192.7563   174.9586 </r>
       <r>    -3.7743   269.0038   195.7231 </r>
       <r>    -3.6971   303.7640   219.1708 </r>
       <r>    -3.6199   256.7862   238.9923 </r>
       <r>    -3.5427   215.8598   255.6546 </r>
       <r>    -3.4656   179.1052   269.4799 </r>
       <r>    -3.3884   172.6575   282.8074 </r>
       <r>    -3.3112   187.9322   297.3140 </r>
       <r>    -3.2340   161.2387   309.7601 </r>
       <r>    -3.1568    95.0070   317.0937 </r>
       <r>    -3.0796    32.3244   319.5888 </r>
       <r>    -3.0024     5.0155   319.9760 </r>
       <r>    -2.9252     0.3045   319.9995 </r>
       <r>    -2.8480     0.0067   320.0000 </r>
       <r>    -2.7708     0.0000   320.0000 </r>
       <r>    -2.6936     0.0000   320.0000 </r>
       <r>    -2.6165     0.0000   320.0000 </r>
       <r>    -2.5393     0.0000   320.0000 </r>
       <r>    -2.4621     0.0000   320.0000 </r>
       <r>    -2.3849     0.0000   320.0000 </r>
       <r>    -2.3077     0.0000   320.0000 </r>
       <r>    -2.2305     0.0000   320.0000 </r>
       <r>    -2.1533     0.0000   320.0000 </r>
       <r>    -2.0761     0.0000   320.0000 </r>
       <r>    -1.9989     0.0000   320.0000 </r>
       <r>    -1.9217     0.0000   320.0000 </r>
       <r>    -1.8446     0.0000   320.0000 </r>
       <r>    -1.7674     0.0000   320.0000 </r>
       <r>    -1.6902     0.0000   320.0000 </r>
       <r>    -1.6130     0.0000   320.0000 </r>
       <r>    -1.5358     0.0003   320.0000 </r>
       <r>    -1.4586     0.0248   320.0019 </r>
       <r>    -1.3814     0.6305   320.0506 </r>
       <r>    -1.3042     5.5209   320.4768 </r>
       <r>    -1.2270    19.3889   321.9734 </r>
       <r>    -1.1498    42.9502   325.2888 </r>
       <r>    -1.0726   103.8289   333.3034 </r>
       <r>    -0.9955   224.6914   350.6474 </r>
       <r>    -0.9183   329.4353   376.0767 </r>
       <r>    -0.8411   344.4534   402.6652 </r>
       <r>    -0.7639   316.1953   427.0725 </r>
       <r>    -0.6867   314.1434   451.3214 </r>
       <r>    -0.6095   272.2416   472.3359 </r>
       <r>    -0.5323   171.0643   485.5404 </r>
       <r>    -0.4551   124.4043   495.1432 </r>
       <r>    -0.3779   130.4296   505.2112 </r>
       <r>    -0.3007    72.0622   510.7737 </r>
       <r>    -0.2235    14.7977   511.9159 </r>
       <r>    -0.1464     1.0629   511.9980 </r>
       <r>    -0.0692     0.0260   512.0000 </r>
       <r>     0.0080     0.0002   512.0000 </r>
       <r>     0.0852     0.0000   512.0000 </r>
       <r>     0.1624     0.0000   512.0000 </r>
       <r>     0.2396     0.0000   512.0000 </r>
       <r>     0.3168     0.0000   512.0000 </r>
       <r>     0.3940     0.0000   512.0000 </r>
       <r>     0.4712     0.0000   512.0000 </r>
       <r>     0.5484     0.0000   512.0000 </r>
       <r>     0.6255     0.0000   512.0000 </r>
       <r>     0.7027     0.0000   512.0000 </r>
       <r>     0.7799     0.0000   512.0000 </r>
       <r>     0.8571     0.0000   512.0000 </r>
       <r>     0.9343     0.0000   512.0000 </r>
       <r>     1.0115     0.0000   512.0000 </r>
       <r>     1.0887     0.0000   512.0000 </r>
       <r>     1.1659     0.0000   512.0000 </r>
       <r>     1.2431     0.0045   512.0004 </r>
       <r>     1.3203     0.1355   512.0108 </r>
       <r>     1.3975     1.3408   512.1143 </r>
       <r>     1.4746     4.5263   512.4637 </r>
       <r>     1.5518     6.1313   512.9370 </r>
       <r>     1.6290     6.0986   513.4077 </r>
       <r>     1.7062     5.3041   513.8172 </r>
       <r>     1.7834     2.0733   513.9772 </r>
       <r>     1.8606     0.2825   513.9990 </r>
       <r>     1.9378     0.0139   514.0001 </r>
       <r>     2.0150     0.0532   514.0042 </r>
       <r>     2.0922     0.8714   514.0714 </r>
       <r>     2.1694     5.9584   514.5314 </r>
       <r>     2.2465    20.0818   516.0815 </r>
       <r>     2.3237    36.1307   518.8704 </r>
       <r>     2.4009    34.4908   521.5328 </r>
       <r>     2.4781    15.8369   522.7553 </r>
       <r>     2.5553     2.9960   522.9865 </r>
       <r>     2.6325     0.9695   523.0614 </r>
       <r>     2.7097     6.9922   523.6011 </r>
       <r>     2.7869    25.0232   525.5327 </r>
       <r>     2.8641    47.4395   529.1945 </r>
       <r>     2.9413    53.6933   533.3392 </r>
       <r>     3.0185    28.2937   535.5232 </r>
       <r>     3.0956     5.7503   535.9670 </r>
       <r>     3.1728     0.6358   536.0161 </r>
       <r>     3.2500     2.0720   536.1760 </r>
       <r>     3.3272     9.6089   536.9178 </r>
       <r>     3.4044    28.5851   539.1243 </r>
       <r>     3.4816    49.5682   542.9505 </r>
       <r>     3.5588    44.8279   546.4107 </r>
       <r>     3.6360    36.6449   549.2394 </r>
       <r>     3.7132    40.8665   552.3939 </r>
       <r>     3.7904    49.4970   556.2146 </r>
       <r>     3.8675    64.1954   561.1699 </r>
       <r>     3.9447    54.5030   565.3770 </r>
       <r>     4.0219    38.6737   568.3622 </r>
       <r>     4.0991    32.5916   570.8780 </r>
       <r>     4.1763    31.0837   573.2774 </r>
       <r>     4.2535    39.1364   576.2983 </r>
       <r>     4.3307    62.1600   581.0965 </r>
       <r>     4.4079    68.1859   586.3598 </r>
       <r>     4.4851    47.0977   589.9953 </r>
       <r>     4.5623    37.8034   592.9133 </r>
       <r>     4.6395    65.5353   597.9720 </r>
       <r>     4.7166    69.2038   603.3139 </r>
       <r>     4.7938    46.3056   606.8883 </r>
       <r>     4.8710    45.6269   610.4103 </r>
       <r>     4.9482    55.3867   614.6856 </r>
       <r>     5.0254    77.4337   620.6627 </r>
       <r>     5.1026    95.5186   628.0359 </r>
       <r>     5.1798    97.9071   635.5934 </r>
       <r>     5.2570    99.4483   643.2698 </r>
       <r>     5.3342   107.0358   651.5320 </r>
       <r>     5.4114   104.8097   659.6223 </r>
       <r>     5.4885    76.2121   665.5051 </r>
       <r>     5.5657    64.1864   670.4597 </r>
       <r>     5.6429    75.7613   676.3078 </r>
       <r>     5.7201    78.7222   682.3844 </r>
       <r>     5.7973    52.5191   686.4384 </r>
       <r>     5.8745    17.6602   687.8016 </r>
       <r>     5.9517     2.4462   687.9904 </r>
       <r>     6.0289     0.1225   687.9998 </r>
       <r>     6.1061     0.0021   688.0000 </r>
       <r>     6.1833     0.0000   688.0000 </r>
       <r>     6.2605     0.0000   688.0000 </r>
       <r>     6.3376     0.0000   688.0000 </r>
       <r>     6.4148     0.0000   688.0000 </r>
       <r>     6.4920     0.0000   688.0000 </r>
       <r>     6.5692     0.0000   688.0000 </r>
       <r>     6.6464     0.0000   688.0000 </r>
       <r>     6.7236     0.0000   688.0000 </r>
       <r>     6.8008     0.0000   688.0000 </r>
      </set>
     </set>
    </array>
   </total>
  </dos>
 </calculation>
 <structure name="finalpos" >
  <crystal>
   <varray name="basis" >
    <v>      -8.91475688       8.91475688       0.00000000 </v>
    <v>     -17.82951376       0.00000000       0.00000000 </v>
    <v>       0.00000000       0.00000000      27.60082437 </v>
   </varray>
   <i name="volume">   4387.03457046 </i>
   <varray name="rec_basis" >
    <v>       0.00000000       0.11217356       0.00000000 </v>
    <v>      -0.05608678      -0.05608678       0.00000000 </v>
    <v>       0.00000000       0.00000000       0.03623080 </v>
   </varray>
  </crystal>
  <varray name="positions" >
   <v>       0.24999304       0.00000198       0.29589041 </v>
   <v>      -0.00022047       0.12497784       0.21305812 </v>
   <v>       0.25000127      -0.00000052       0.45954588 </v>
   <v>      -0.00002528       0.12624788       0.37773022 </v>
   <v>       0.24999713       0.00000306       0.62303451 </v>
   <v>      -0.00019466       0.12478929       0.54135781 </v>
   <v>       0.24999871       0.00000138       0.78531138 </v>
   <v>      -0.00002755       0.12411327       0.70516698 </v>
   <v>       0.24985983       0.12497679       0.21300073 </v>
   <v>       0.25000228       0.24999824       0.29593274 </v>
   <v>       0.00025006       0.37500483       0.21306352 </v>
   <v>       0.25263330       0.12364396       0.37752106 </v>
   <v>       0.24999766       0.25000204       0.45949862 </v>
   <v>       0.00001485       0.37375888       0.37773118 </v>
   <v>       0.24956131       0.12519224       0.54130150 </v>
   <v>       0.24999806       0.25000211       0.62309746 </v>
   <v>       0.00019265       0.37521004       0.54135536 </v>
   <v>       0.24829194       0.12584024       0.70499668 </v>
   <v>       0.24999786       0.25000180       0.78541544 </v>
   <v>       0.00002159       0.37589349       0.70516673 </v>
   <v>       0.25014520       0.37501251       0.21298606 </v>
   <v>       0.25000176       0.49999869       0.29589193 </v>
   <v>      -0.00021876       0.62497776       0.21305760 </v>
   <v>       0.24735284       0.37636131       0.37752083 </v>
   <v>       0.24998604       0.50000859       0.45954854 </v>
   <v>      -0.00002487       0.62624761       0.37773054 </v>
   <v>       0.25043241       0.37481492       0.54130254 </v>
   <v>       0.24999692       0.50000327       0.62303511 </v>
   <v>      -0.00019583       0.62478912       0.54135879 </v>
   <v>       0.25170247       0.37416581       0.70499692 </v>
   <v>       0.24999876       0.50000132       0.78531162 </v>
   <v>      -0.00002757       0.62411319       0.70516712 </v>
   <v>       0.24986077       0.62497670       0.21300130 </v>
   <v>       0.24998721       0.75000666       0.29593469 </v>
   <v>       0.00024995       0.87500536       0.21306383 </v>
   <v>       0.25264381       0.62363711       0.37751988 </v>
   <v>       0.25000397       0.75000038       0.45949984 </v>
   <v>       0.00001105       0.87375443       0.37774409 </v>
   <v>       0.24956241       0.62519190       0.54130247 </v>
   <v>       0.24999785       0.75000302       0.62309737 </v>
   <v>       0.00019291       0.87521013       0.54135591 </v>
   <v>       0.24829209       0.62584019       0.70499681 </v>
   <v>       0.24999786       0.75000185       0.78541543 </v>
   <v>       0.00002178       0.87589369       0.70516683 </v>
   <v>       0.25014442       0.87501274       0.21298614 </v>
   <v>       0.24735415       0.87636094       0.37752141 </v>
   <v>       0.25043260       0.87481550       0.54130133 </v>
   <v>       0.25170239       0.87416594       0.70499670 </v>
   <v>       0.75000161      -0.00000115       0.29589186 </v>
   <v>       0.49978133       0.12497765       0.21305758 </v>
   <v>       0.74998600       0.00000859       0.45954851 </v>
   <v>       0.49997563       0.12624733       0.37773054 </v>
   <v>       0.74999706       0.00000310       0.62303510 </v>
   <v>       0.49980441       0.12478858       0.54135899 </v>
   <v>       0.74999881       0.00000131       0.78531161 </v>
   <v>       0.49997244       0.12411313       0.70516713 </v>
   <v>       0.74986096       0.12497656       0.21300134 </v>
   <v>       0.74998812       0.25000571       0.29593471 </v>
   <v>       0.50025004       0.37500522       0.21306386 </v>
   <v>       0.75264390       0.12363676       0.37751993 </v>
   <v>       0.75000539       0.24999909       0.45949985 </v>
   <v>       0.50001130       0.37375389       0.37774430 </v>
   <v>       0.74956338       0.12519125       0.54130273 </v>
   <v>       0.74999885       0.25000208       0.62309756 </v>
   <v>       0.50019334       0.37520993       0.54135596 </v>
   <v>       0.74829213       0.12584017       0.70499679 </v>
   <v>       0.74999800       0.25000171       0.78541544 </v>
   <v>       0.50002185       0.37589358       0.70516693 </v>
   <v>       0.75014459       0.37501267       0.21298615 </v>
   <v>       0.74999323       0.50000180       0.29589071 </v>
   <v>       0.49977963       0.62497788       0.21305811 </v>
   <v>       0.74735182       0.37636196       0.37752070 </v>
   <v>       0.75000116       0.49999953       0.45954630 </v>
   <v>       0.49997450       0.62624815       0.37772995 </v>
   <v>       0.75043278       0.37481520       0.54130223 </v>
   <v>       0.74999690       0.50000325       0.62303478 </v>
   <v>       0.49980526       0.62478837       0.54135909 </v>
   <v>       0.75170275       0.37416574       0.70499679 </v>
   <v>       0.74999893       0.50000126       0.78531154 </v>
   <v>       0.49997252       0.62411314       0.70516713 </v>
   <v>       0.74985973       0.62497679       0.21300079 </v>
   <v>       0.75000133       0.74999918       0.29593265 </v>
   <v>       0.50025011       0.87500488       0.21306347 </v>
   <v>       0.75263300       0.62364436       0.37752080 </v>
   <v>       0.74999621       0.75000334       0.45949862 </v>
   <v>       0.50001487       0.87375792       0.37773177 </v>
   <v>       0.74956293       0.62519154       0.54130279 </v>
   <v>       0.74999708       0.75000304       0.62309738 </v>
   <v>       0.50018861       0.87521867       0.54135735 </v>
   <v>       0.74829187       0.62584024       0.70499681 </v>
   <v>       0.74999795       0.75000177       0.78541545 </v>
   <v>       0.50002162       0.87589372       0.70516673 </v>
   <v>       0.75014513       0.87501259       0.21298599 </v>
   <v>       0.74735185       0.87636199       0.37752059 </v>
   <v>       0.75043233       0.87481518       0.54130253 </v>
   <v>       0.75170220       0.87416595       0.70499686 </v>
   <v>       0.25002957      -0.00001807       0.21469282 </v>
   <v>       0.24999695       0.00000070       0.37775782 </v>
   <v>       0.24999723       0.00000326       0.54132541 </v>
   <v>       0.24999805       0.00000211       0.70492862 </v>
   <v>       0.25003053       0.24998269       0.21470279 </v>
   <v>       0.24999584       0.25000177       0.37776293 </v>
   <v>       0.24999750       0.25000267       0.54131574 </v>
   <v>       0.24999799       0.25000244       0.70500103 </v>
   <v>       0.25003010       0.49998179       0.21469356 </v>
   <v>       0.24999511       0.50000075       0.37775946 </v>
   <v>       0.24999743       0.50000277       0.54132682 </v>
   <v>       0.24999795       0.50000217       0.70492889 </v>
   <v>       0.25002957       0.74998342       0.21470375 </v>
   <v>       0.24999304       0.75000249       0.37776423 </v>
   <v>       0.24999784       0.75000314       0.54131608 </v>
   <v>       0.24999759       0.75000271       0.70500100 </v>
   <v>       0.75003011      -0.00001822       0.21469352 </v>
   <v>       0.74999518       0.00000067       0.37775944 </v>
   <v>       0.74999728       0.00000291       0.54132681 </v>
   <v>       0.74999798       0.00000212       0.70492888 </v>
   <v>       0.75002958       0.24998339       0.21470378 </v>
   <v>       0.74999328       0.25000209       0.37776427 </v>
   <v>       0.74999863       0.25000256       0.54131617 </v>
   <v>       0.74999760       0.25000243       0.70500110 </v>
   <v>       0.75002955       0.49998195       0.21469298 </v>
   <v>       0.74999674       0.50000089       0.37775798 </v>
   <v>       0.74999797       0.50000249       0.54132597 </v>
   <v>       0.74999754       0.50000260       0.70492892 </v>
   <v>       0.75003048       0.74998272       0.21470276 </v>
   <v>       0.74999544       0.75000218       0.37776286 </v>
   <v>       0.74999738       0.75000322       0.54131566 </v>
   <v>       0.74999752       0.75000271       0.70500101 </v>
   <v>      -0.00000779       0.00000524       0.29467484 </v>
   <v>      -0.00000483       0.00000278       0.45942540 </v>
   <v>      -0.00000370       0.00000319       0.62293768 </v>
   <v>      -0.00000411       0.00000359       0.78466981 </v>
   <v>       0.00001541       0.24998403       0.29472164 </v>
   <v>      -0.00000421       0.25000356       0.45942711 </v>
   <v>      -0.00000411       0.25000376       0.62289961 </v>
   <v>      -0.00000403       0.25000357       0.78477462 </v>
   <v>      -0.00000614       0.50000295       0.29467576 </v>
   <v>      -0.00000413       0.50000327       0.45942543 </v>
   <v>      -0.00000371       0.50000332       0.62293760 </v>
   <v>      -0.00000412       0.50000363       0.78466984 </v>
   <v>       0.00001534       0.74998304       0.29472166 </v>
   <v>      -0.00000488       0.75000476       0.45942674 </v>
   <v>       0.00000235       0.74999854       0.62289122 </v>
   <v>      -0.00000411       0.75000361       0.78477455 </v>
   <v>       0.49999402       0.00000311       0.29467558 </v>
   <v>       0.49999614       0.00000345       0.45942536 </v>
   <v>       0.49999652       0.00000327       0.62293769 </v>
   <v>       0.49999585       0.00000360       0.78466981 </v>
   <v>       0.50001519       0.24998313       0.29472169 </v>
   <v>       0.49999515       0.25000474       0.45942682 </v>
   <v>       0.50000224       0.24999859       0.62289121 </v>
   <v>       0.49999587       0.25000364       0.78477456 </v>
   <v>       0.49999263       0.50000513       0.29467505 </v>
   <v>       0.49999551       0.50000289       0.45942549 </v>
   <v>       0.49999630       0.50000336       0.62293761 </v>
   <v>       0.49999576       0.50000364       0.78466982 </v>
   <v>       0.50001611       0.74998335       0.29472173 </v>
   <v>       0.49999444       0.75000544       0.45942745 </v>
   <v>       0.50000236       0.74999847       0.62289127 </v>
   <v>       0.49999583       0.75000369       0.78477456 </v>
  </varray>
 </structure>
</modeling>
