 running on  120 total cores
 distrk:  each k-point on  120 cores,    1 groups
 distr:  one band on   15 cores,    8 groups
 vasp.6.2.1 16May21 (build Dec 23 2021 00:35:04) complex                        
  
 POSCAR found type information on POSCAR NaO Cl
 POSCAR found :  3 types and     160 ions
 scaLAPACK will be used
 LDA part: xc-table for Pade appr. of Perdew
 -----------------------------------------------------------------------------
|                                                                             |
|           W    W    AA    RRRRR   N    N  II  N    N   GGGG   !!!           |
|           W    W   A  A   R    R  NN   N  II  NN   N  G    G  !!!           |
|           W    W  A    A  R    R  N N  N  II  N N  N  G       !!!           |
|           W WW W  AAAAAA  RRRRR   N  N N  II  N  N N  G  GGG   !            |
|           WW  WW  A    A  R   R   N   NN  II  N   NN  G    G                |
|           W    W  A    A  R    R  N    N  II  N    N   GGGG   !!!           |
|                                                                             |
|     The requested file  could not be found or opened for reading            |
|     k-point information. Automatic k-point generation is used as a          |
|     fallback, which may lead to unwanted results.                           |
|                                                                             |
 -----------------------------------------------------------------------------

 POSCAR, INCAR and KPOINTS ok, starting setup
 FFT: planning ...
 WAVECAR not read
 WARNING: random wavefunctions but no delay for mixing, default for NELMDL
 entering main loop
       N       E                     dE             d eps       ncg     rms          rms(c)
DAV:   1     0.424634864390E+04    0.42463E+04   -0.15483E+05  1432   0.925E+02
DAV:   2     0.336314419108E+03   -0.39100E+04   -0.37582E+04  1832   0.236E+02
DAV:   3    -0.704638697548E+03   -0.10410E+04   -0.10347E+04  1960   0.126E+02
DAV:   4    -0.736290878762E+03   -0.31652E+02   -0.31563E+02  1616   0.268E+01
DAV:   5    -0.737370330200E+03   -0.10795E+01   -0.10789E+01  1864   0.521E+00    0.598E+01
RMM:   6    -0.579386904705E+03    0.15798E+03   -0.56649E+02  1376   0.252E+01    0.229E+01
RMM:   7    -0.580863264659E+03   -0.14764E+01   -0.10149E+02  1560   0.775E+00    0.181E+01
RMM:   8    -0.576860235615E+03    0.40030E+01   -0.22183E+01  1377   0.665E+00    0.604E+00
RMM:   9    -0.574202905495E+03    0.26573E+01   -0.77347E+00  1432   0.335E+00    0.236E+00
RMM:  10    -0.574449092185E+03   -0.24619E+00   -0.27633E+00  1607   0.134E+00    0.175E+00
RMM:  11    -0.574489970399E+03   -0.40878E-01   -0.82091E-01  1376   0.107E+00    0.163E+00
RMM:  12    -0.574412848962E+03    0.77121E-01   -0.11928E-01  1410   0.427E-01    0.945E-01
RMM:  13    -0.574388738304E+03    0.24111E-01   -0.10559E-01  1430   0.326E-01    0.301E-01
RMM:  14    -0.574388665376E+03    0.72928E-04   -0.92880E-02  1503   0.232E-01    0.262E-01
RMM:  15    -0.574398210838E+03   -0.95455E-02   -0.35059E-02  1622   0.175E-01    0.578E-01
RMM:  16    -0.574392658882E+03    0.55520E-02   -0.11000E-02  1376   0.117E-01    0.320E-01
RMM:  17    -0.574398717886E+03   -0.60590E-02   -0.34323E-02  1543   0.179E-01    0.165E-01
RMM:  18    -0.574399124104E+03   -0.40622E-03   -0.19218E-03  1377   0.562E-02    0.844E-02
RMM:  19    -0.574404232665E+03   -0.51086E-02   -0.21734E-03  1380   0.544E-02    0.532E-02
RMM:  20    -0.574407732747E+03   -0.35001E-02   -0.55380E-04  1399   0.248E-02    0.244E-02
RMM:  21    -0.574408214215E+03   -0.48147E-03   -0.23800E-04  1588   0.134E-02    0.148E-02
RMM:  22    -0.574408611894E+03   -0.39768E-03   -0.64647E-05  1425   0.797E-03    0.587E-03
RMM:  23    -0.574408687259E+03   -0.75364E-04   -0.21812E-05  1459   0.478E-03    0.584E-03
RMM:  24    -0.574408705390E+03   -0.18131E-04   -0.76669E-06  1512   0.262E-03    0.179E-03
RMM:  25    -0.574408714490E+03   -0.90998E-05   -0.51246E-06  1476   0.218E-03    0.427E-03
RMM:  26    -0.574408717529E+03   -0.30392E-05   -0.14405E-06  1371   0.132E-03    0.176E-03
RMM:  27    -0.574408718751E+03   -0.12220E-05   -0.17341E-06  1426   0.130E-03    0.122E-03
RMM:  28    -0.574408718989E+03   -0.23860E-06   -0.17976E-07  1206   0.480E-04    0.536E-04
RMM:  29    -0.574408719075E+03   -0.85856E-07   -0.90076E-08  1180   0.301E-04    0.948E-05
RMM:  30    -0.574408719053E+03    0.22712E-07   -0.11373E-08   877   0.124E-04    0.437E-05
RMM:  31    -0.574408719059E+03   -0.66429E-08   -0.39158E-09   708   0.737E-05
   1 F= -.57440872E+03 E0= -.57440872E+03  d E =-.574409E+03
 curvature:   0.00 expect dE= 0.000E+00 dE for cont linesearch  0.000E+00
 trial: gam= 0.00000 g(F)=  0.206E-01 g(S)=  0.000E+00 ort = 0.000E+00 (trialstep = 0.100E+01)
 search vector abs. value=  0.206E-01
 bond charge predicted
       N       E                     dE             d eps       ncg     rms          rms(c)
DAV:   1    -0.574422641830E+03   -0.13923E-01   -0.23589E+00  1568   0.224E+00    0.238E-01
RMM:   2    -0.574426470062E+03   -0.38282E-02   -0.45549E-02  1419   0.341E-01    0.611E-02
RMM:   3    -0.574426872568E+03   -0.40251E-03   -0.77382E-03  1514   0.141E-01    0.809E-02
RMM:   4    -0.574426874282E+03   -0.17138E-05   -0.14663E-03  1520   0.555E-02    0.636E-02
RMM:   5    -0.574426635173E+03    0.23911E-03   -0.72299E-04  1376   0.374E-02    0.190E-02
RMM:   6    -0.574426605927E+03    0.29246E-04   -0.25184E-04  1541   0.217E-02    0.247E-02
RMM:   7    -0.574426589747E+03    0.16180E-04   -0.11805E-04  1414   0.125E-02    0.115E-02
RMM:   8    -0.574426581396E+03    0.83510E-05   -0.73979E-05  1542   0.929E-03    0.136E-02
RMM:   9    -0.574426575734E+03    0.56625E-05   -0.95732E-06  1440   0.427E-03    0.884E-03
RMM:  10    -0.574426574850E+03    0.88385E-06   -0.20372E-05  1379   0.459E-03    0.284E-03
RMM:  11    -0.574426576856E+03   -0.20056E-05   -0.34011E-06  1589   0.233E-03    0.234E-03
RMM:  12    -0.574426582536E+03   -0.56806E-05   -0.12297E-06  1387   0.129E-03    0.172E-03
RMM:  13    -0.574426587629E+03   -0.50926E-05   -0.10460E-06  1589   0.875E-04    0.192E-03
RMM:  14    -0.574426589932E+03   -0.23036E-05   -0.24042E-07  1339   0.493E-04    0.835E-04
RMM:  15    -0.574426593379E+03   -0.34463E-05   -0.29675E-07  1364   0.574E-04    0.107E-03
RMM:  16    -0.574426595035E+03   -0.16566E-05   -0.16590E-07  1331   0.337E-04    0.821E-04
RMM:  17    -0.574426595915E+03   -0.87929E-06   -0.21095E-07  1401   0.391E-04    0.239E-04
RMM:  18    -0.574426596123E+03   -0.20846E-06   -0.24109E-08   947   0.195E-04    0.264E-04
RMM:  19    -0.574426596296E+03   -0.17275E-06   -0.19127E-08   935   0.146E-04    0.124E-04
RMM:  20    -0.574426596372E+03   -0.76288E-07   -0.17607E-08   892   0.146E-04    0.175E-04
RMM:  21    -0.574426596428E+03   -0.56360E-07   -0.10546E-08   862   0.110E-04    0.400E-05
RMM:  22    -0.574426596448E+03   -0.19238E-07   -0.32993E-09   744   0.670E-05    0.580E-05
RMM:  23    -0.574426596459E+03   -0.11369E-07   -0.23339E-09   633   0.507E-05    0.421E-05
RMM:  24    -0.574426596459E+03   -0.26193E-09   -0.89493E-10   478   0.392E-05
   2 F= -.57442660E+03 E0= -.57442660E+03  d E =-.178774E-01
 trial-energy change:   -0.017877  1 .order   -0.017898   -0.020631   -0.015165
 step:   3.7745(harm=  3.7745)  dis= 0.01939  next Energy=  -574.447655 (dE=-0.389E-01)
 bond charge predicted
       N       E                     dE             d eps       ncg     rms          rms(c)
DAV:   1    -0.574418424331E+03    0.81721E-02   -0.18154E+01  1528   0.624E+00    0.659E-01
RMM:   2    -0.574447197681E+03   -0.28773E-01   -0.34406E-01  1399   0.956E-01    0.171E-01
RMM:   3    -0.574450333010E+03   -0.31353E-02   -0.58646E-02  1521   0.405E-01    0.228E-01
RMM:   4    -0.574450359162E+03   -0.26151E-04   -0.10816E-02  1505   0.156E-01    0.180E-01
RMM:   5    -0.574448541660E+03    0.18175E-02   -0.57534E-03  1376   0.107E-01    0.574E-02
RMM:   6    -0.574448327983E+03    0.21368E-03   -0.17628E-03  1530   0.596E-02    0.696E-02
RMM:   7    -0.574448173512E+03    0.15447E-03   -0.65828E-04  1529   0.294E-02    0.328E-02
RMM:   8    -0.574448088430E+03    0.85083E-04   -0.42690E-04  1472   0.222E-02    0.240E-02
RMM:   9    -0.574448078609E+03    0.98207E-05   -0.17341E-04  1716   0.142E-02    0.309E-02
RMM:  10    -0.574448049118E+03    0.29491E-04   -0.12447E-04  1381   0.117E-02    0.900E-03
RMM:  11    -0.574448067149E+03   -0.18031E-04   -0.44336E-05  1432   0.799E-03    0.603E-03
RMM:  12    -0.574448081411E+03   -0.14262E-04   -0.82307E-06  1547   0.347E-03    0.479E-03
RMM:  13    -0.574448119154E+03   -0.37743E-04   -0.77742E-06  1396   0.306E-03    0.404E-03
RMM:  14    -0.574448128754E+03   -0.95993E-05   -0.19454E-06  1579   0.137E-03    0.367E-03
RMM:  15    -0.574448145114E+03   -0.16360E-04   -0.19764E-06  1402   0.142E-03    0.164E-03
RMM:  16    -0.574448153540E+03   -0.84266E-05   -0.92067E-07  1455   0.995E-04    0.232E-03
RMM:  17    -0.574448158712E+03   -0.51719E-05   -0.10261E-06  1510   0.852E-04    0.838E-04
RMM:  18    -0.574448160793E+03   -0.20804E-05   -0.19196E-07  1407   0.429E-04    0.374E-04
RMM:  19    -0.574448161829E+03   -0.10363E-05   -0.49569E-08  1028   0.228E-04    0.295E-04
RMM:  20    -0.574448162693E+03   -0.86427E-06   -0.53683E-08  1017   0.169E-04    0.130E-04
RMM:  21    -0.574448162947E+03   -0.25370E-06   -0.27675E-08   967   0.159E-04    0.182E-04
RMM:  22    -0.574448163094E+03   -0.14699E-06   -0.13550E-08   882   0.117E-04    0.144E-04
RMM:  23    -0.574448163137E+03   -0.43532E-07   -0.12543E-08   866   0.107E-04    0.142E-04
RMM:  24    -0.574448163144E+03   -0.62901E-08   -0.44711E-09   803   0.810E-05
   3 F= -.57444816E+03 E0= -.57444816E+03  d E =-.394441E-01
 curvature:  -1.89 expect dE=-0.160E-01 dE for cont linesearch -0.298E-04
 trial: gam= 0.38261 g(F)=  0.846E-02 g(S)=  0.000E+00 ort = 0.571E-03 (trialstep = 0.155E+01)
 search vector abs. value=  0.119E-01
 bond charge predicted
       N       E                     dE             d eps       ncg     rms          rms(c)
DAV:   1    -0.574456781720E+03   -0.86186E-02   -0.69747E-01  1528   0.120E+00    0.277E-01
RMM:   2    -0.574458782715E+03   -0.20010E-02   -0.26255E-02  1383   0.283E-01    0.529E-02
RMM:   3    -0.574459537713E+03   -0.75500E-03   -0.91980E-03  1654   0.136E-01    0.142E-01
RMM:   4    -0.574459545815E+03   -0.81024E-05   -0.77551E-04  1481   0.423E-02    0.113E-01
RMM:   5    -0.574459461805E+03    0.84011E-04   -0.75467E-05  1515   0.136E-02    0.969E-02
RMM:   6    -0.574459348651E+03    0.11315E-03   -0.22288E-03  1534   0.396E-02    0.500E-02
RMM:   7    -0.574459361696E+03   -0.13045E-04   -0.17726E-04  1582   0.167E-02    0.624E-02
RMM:   8    -0.574459239581E+03    0.12211E-03   -0.18193E-04  1449   0.124E-02    0.319E-02
RMM:   9    -0.574459214651E+03    0.24931E-04   -0.25193E-04  1459   0.148E-02    0.100E-02
RMM:  10    -0.574459216111E+03   -0.14608E-05   -0.15255E-05  1575   0.615E-03    0.619E-03
RMM:  11    -0.574459222065E+03   -0.59533E-05   -0.13220E-05  1455   0.443E-03    0.870E-03
RMM:  12    -0.574459222765E+03   -0.70052E-06   -0.30920E-06  1514   0.187E-03    0.544E-03
RMM:  13    -0.574459225486E+03   -0.27204E-05   -0.56602E-06  1432   0.203E-03    0.102E-03
RMM:  14    -0.574459227514E+03   -0.20280E-05   -0.46182E-07  1460   0.927E-04    0.846E-04
RMM:  15    -0.574459233057E+03   -0.55438E-05   -0.61714E-07  1354   0.719E-04    0.798E-04
RMM:  16    -0.574459235156E+03   -0.20984E-05   -0.14585E-07  1246   0.357E-04    0.471E-04
RMM:  17    -0.574459237155E+03   -0.19993E-05   -0.29389E-07  1323   0.419E-04    0.531E-04
RMM:  18    -0.574459238191E+03   -0.10361E-05   -0.63069E-08  1113   0.237E-04    0.255E-04
RMM:  19    -0.574459238450E+03   -0.25839E-06   -0.24551E-08   964   0.145E-04    0.106E-04
RMM:  20    -0.574459238575E+03   -0.12520E-06   -0.96463E-09   868   0.993E-05    0.654E-05
RMM:  21    -0.574459238626E+03   -0.51481E-07   -0.69290E-09   757   0.785E-05    0.592E-05
RMM:  22    -0.574459238637E+03   -0.10972E-07   -0.32179E-09   698   0.608E-05    0.401E-05
RMM:  23    -0.574459238639E+03   -0.20373E-08   -0.17149E-09   529   0.445E-05
   4 F= -.57445924E+03 E0= -.57445924E+03  d E =-.110755E-01
 trial-energy change:   -0.011075  1 .order   -0.011116   -0.013502   -0.008729
 step:   4.9428(harm=  4.3990)  dis= 0.01528  next Energy=  -574.468333 (dE=-0.202E-01)
 bond charge predicted
       N       E                     dE             d eps       ncg     rms          rms(c)
DAV:   1    -0.574453887821E+03    0.53508E-02   -0.33103E+00  1512   0.259E+00    0.589E-01
RMM:   2    -0.574463331797E+03   -0.94440E-02   -0.12373E-01  1385   0.605E-01    0.114E-01
RMM:   3    -0.574466800156E+03   -0.34684E-02   -0.42370E-02  1647   0.290E-01    0.300E-01
RMM:   4    -0.574466852721E+03   -0.52565E-04   -0.38348E-03  1484   0.904E-02    0.237E-01
RMM:   5    -0.574466444714E+03    0.40801E-03   -0.36442E-04  1510   0.292E-02    0.200E-01
RMM:   6    -0.574466006592E+03    0.43812E-03   -0.10670E-02  1539   0.848E-02    0.112E-01
RMM:   7    -0.574465960143E+03    0.46449E-04   -0.58310E-04  1538   0.324E-02    0.124E-01
RMM:   8    -0.574465405114E+03    0.55503E-03   -0.12047E-03  1498   0.301E-02    0.442E-02
RMM:   9    -0.574465347618E+03    0.57496E-04   -0.40196E-04  1614   0.208E-02    0.194E-02
RMM:  10    -0.574465354385E+03   -0.67671E-05   -0.54779E-05  1581   0.887E-03    0.104E-02
RMM:  11    -0.574465388891E+03   -0.34505E-04   -0.75196E-05  1409   0.921E-03    0.244E-02
RMM:  12    -0.574465377108E+03    0.11783E-04   -0.44818E-05  1466   0.603E-03    0.766E-03
RMM:  13    -0.574465391161E+03   -0.14054E-04   -0.42043E-05  1574   0.560E-03    0.512E-03
RMM:  14    -0.574465402522E+03   -0.11360E-04   -0.55279E-06  1403   0.249E-03    0.122E-03
RMM:  15    -0.574465418024E+03   -0.15502E-04   -0.27929E-06  1436   0.159E-03    0.157E-03
RMM:  16    -0.574465425490E+03   -0.74657E-05   -0.94233E-07  1473   0.866E-04    0.819E-04
RMM:  17    -0.574465433188E+03   -0.76987E-05   -0.65090E-07  1322   0.601E-04    0.991E-04
RMM:  18    -0.574465434666E+03   -0.14776E-05   -0.16516E-07  1282   0.339E-04    0.545E-04
RMM:  19    -0.574465435448E+03   -0.78173E-06   -0.50224E-08  1027   0.210E-04    0.227E-04
RMM:  20    -0.574465435909E+03   -0.46135E-06   -0.39538E-08  1029   0.177E-04    0.264E-04
RMM:  21    -0.574465436054E+03   -0.14553E-06   -0.13094E-08   906   0.111E-04    0.685E-05
RMM:  22    -0.574465436115E+03   -0.60947E-07   -0.11374E-08   834   0.932E-05    0.151E-04
RMM:  23    -0.574465436121E+03   -0.59081E-08   -0.29838E-09   685   0.616E-05
   5 F= -.57446544E+03 E0= -.57446544E+03  d E =-.172730E-01
 curvature:  -2.91 expect dE=-0.321E-01 dE for cont linesearch -0.103E-02
 ZBRENT: interpolating
 opt :   4.0366  next Energy=  -574.466365 (dE=-0.182E-01)
 bond charge predicted
       N       E                     dE             d eps       ncg     rms          rms(c)
DAV:   1    -0.574465574615E+03   -0.13850E-03   -0.23679E-01  1632   0.684E-01    0.159E-01
RMM:   2    -0.574466243985E+03   -0.66937E-03   -0.88109E-03  1381   0.160E-01    0.305E-02
RMM:   3    -0.574466500899E+03   -0.25691E-03   -0.30795E-03  1660   0.777E-02    0.820E-02
RMM:   4    -0.574466507777E+03   -0.68782E-05   -0.28358E-04  1467   0.244E-02    0.658E-02
RMM:   5    -0.574466482264E+03    0.25513E-04   -0.25621E-05  1531   0.775E-03    0.575E-02
RMM:   6    -0.574466440744E+03    0.41520E-04   -0.74282E-04  1528   0.224E-02    0.291E-02
RMM:   7    -0.574466445220E+03   -0.44756E-05   -0.70809E-05  1566   0.101E-02    0.370E-02
RMM:   8    -0.574466401976E+03    0.43244E-04   -0.67525E-05  1495   0.731E-03    0.186E-02
RMM:   9    -0.574466389964E+03    0.12012E-04   -0.62121E-05  1493   0.748E-03    0.579E-03
RMM:  10    -0.574466390864E+03   -0.89980E-06   -0.60950E-06  1674   0.339E-03    0.308E-03
RMM:  11    -0.574466393851E+03   -0.29874E-05   -0.52977E-06  1385   0.257E-03    0.467E-03
RMM:  12    -0.574466394950E+03   -0.10985E-05   -0.91739E-07  1479   0.121E-03    0.303E-03
RMM:  13    -0.574466398059E+03   -0.31099E-05   -0.26773E-06  1467   0.129E-03    0.822E-04
RMM:  14    -0.574466400598E+03   -0.25385E-05   -0.15675E-07  1227   0.525E-04    0.473E-04
RMM:  15    -0.574466405956E+03   -0.53578E-05   -0.42672E-07  1357   0.528E-04    0.511E-04
RMM:  16    -0.574466407449E+03   -0.14936E-05   -0.97669E-08  1171   0.263E-04    0.205E-04
RMM:  17    -0.574466408455E+03   -0.10055E-05   -0.10641E-07  1188   0.256E-04    0.296E-04
RMM:  18    -0.574466408865E+03   -0.41047E-06   -0.24398E-08   947   0.144E-04    0.187E-04
RMM:  19    -0.574466408956E+03   -0.91015E-07   -0.11671E-08   858   0.105E-04    0.559E-05
RMM:  20    -0.574466409002E+03   -0.46035E-07   -0.60230E-09   746   0.788E-05    0.502E-05
RMM:  21    -0.574466409017E+03   -0.14399E-07   -0.40269E-09   714   0.664E-05    0.175E-05
RMM:  22    -0.574466409021E+03   -0.43947E-08   -0.22423E-09   666   0.546E-05
   6 F= -.57446641E+03 E0= -.57446641E+03  d E =-.182459E-01
 curvature:  -2.64 expect dE=-0.199E-01 dE for cont linesearch -0.458E-05
 trial: gam= 0.95957 g(F)=  0.754E-02 g(S)=  0.000E+00 ort =-0.144E-03 (trialstep = 0.134E+01)
 search vector abs. value=  0.182E-01
 bond charge predicted
       N       E                     dE             d eps       ncg     rms          rms(c)
DAV:   1    -0.574469104555E+03   -0.26955E-02   -0.28268E+00  1520   0.256E+00    0.322E-01
RMM:   2    -0.574474171182E+03   -0.50666E-02   -0.58238E-02  1380   0.414E-01    0.777E-02
RMM:   3    -0.574475144930E+03   -0.97375E-03   -0.12540E-02  1571   0.181E-01    0.129E-01
RMM:   4    -0.574475236338E+03   -0.91408E-04   -0.19358E-03  1551   0.656E-02    0.103E-01
RMM:   5    -0.574475042604E+03    0.19373E-03   -0.35000E-04  1390   0.279E-02    0.622E-02
RMM:   6    -0.574474988680E+03    0.53924E-04   -0.14555E-03  1424   0.416E-02    0.416E-02
RMM:   7    -0.574474946711E+03    0.41969E-04   -0.12809E-04  1419   0.165E-02    0.299E-02
RMM:   8    -0.574474936970E+03    0.97410E-05   -0.32529E-04  1434   0.160E-02    0.116E-02
RMM:   9    -0.574474932081E+03    0.48883E-05   -0.18782E-05  1485   0.638E-03    0.623E-03
RMM:  10    -0.574474934754E+03   -0.26722E-05   -0.11447E-05  1429   0.337E-03    0.303E-03
RMM:  11    -0.574474940104E+03   -0.53506E-05   -0.37825E-06  1629   0.183E-03    0.235E-03
RMM:  12    -0.574474944371E+03   -0.42663E-05   -0.96137E-07  1499   0.945E-04    0.837E-04
RMM:  13    -0.574474950143E+03   -0.57724E-05   -0.41385E-07  1451   0.556E-04    0.894E-04
RMM:  14    -0.574474953244E+03   -0.31013E-05   -0.16430E-07  1215   0.335E-04    0.804E-04
RMM:  15    -0.574474956610E+03   -0.33652E-05   -0.16637E-07  1256   0.355E-04    0.361E-04
RMM:  16    -0.574474957704E+03   -0.10946E-05   -0.21077E-07  1302   0.376E-04    0.573E-04
RMM:  17    -0.574474958374E+03   -0.67026E-06   -0.62241E-08  1108   0.237E-04    0.329E-04
RMM:  18    -0.574474958481E+03   -0.10650E-06   -0.22498E-08   951   0.147E-04    0.152E-04
RMM:  19    -0.574474958526E+03   -0.45064E-07   -0.16639E-08   885   0.130E-04    0.659E-05
RMM:  20    -0.574474958566E+03   -0.40527E-07   -0.64607E-09   833   0.926E-05    0.864E-05
RMM:  21    -0.574474958579E+03   -0.12886E-07   -0.26090E-09   703   0.566E-05    0.399E-05
RMM:  22    -0.574474958586E+03   -0.67921E-08   -0.19615E-09   597   0.476E-05
   7 F= -.57447496E+03 E0= -.57447496E+03  d E =-.854956E-02
 trial-energy change:   -0.008550  1 .order   -0.008585   -0.009927   -0.007243
 step:   4.9564(harm=  4.9564)  dis= 0.01682  next Energy=  -574.484764 (dE=-0.184E-01)
 bond charge predicted
       N       E                     dE             d eps       ncg     rms          rms(c)
DAV:   1    -0.574444551813E+03    0.30407E-01   -0.20571E+01  1472   0.692E+00    0.872E-01
RMM:   2    -0.574481803007E+03   -0.37251E-01   -0.43012E-01  1383   0.112E+00    0.216E-01
RMM:   3    -0.574488658212E+03   -0.68552E-02   -0.90202E-02  1571   0.488E-01    0.349E-01
RMM:   4    -0.574489205405E+03   -0.54719E-03   -0.13759E-02  1546   0.175E-01    0.271E-01
RMM:   5    -0.574487622529E+03    0.15829E-02   -0.31737E-03  1380   0.835E-02    0.137E-01
RMM:   6    -0.574487346760E+03    0.27577E-03   -0.70821E-03  1398   0.972E-02    0.877E-02
RMM:   7    -0.574487130835E+03    0.21592E-03   -0.75136E-04  1450   0.396E-02    0.559E-02
RMM:   8    -0.574487110552E+03    0.20284E-04   -0.13065E-03  1438   0.360E-02    0.286E-02
RMM:   9    -0.574487081989E+03    0.28563E-04   -0.92625E-05  1444   0.145E-02    0.142E-02
RMM:  10    -0.574487096326E+03   -0.14338E-04   -0.71199E-05  1399   0.885E-03    0.674E-03
RMM:  11    -0.574487124617E+03   -0.28291E-04   -0.21561E-05  1612   0.471E-03    0.666E-03
RMM:  12    -0.574487140852E+03   -0.16235E-04   -0.63816E-06  1474   0.260E-03    0.252E-03
RMM:  13    -0.574487174281E+03   -0.33428E-04   -0.32733E-06  1526   0.166E-03    0.276E-03
RMM:  14    -0.574487185772E+03   -0.11492E-04   -0.80540E-07  1531   0.782E-04    0.188E-03
RMM:  15    -0.574487203636E+03   -0.17864E-04   -0.82383E-07  1350   0.739E-04    0.909E-04
RMM:  16    -0.574487210562E+03   -0.69259E-05   -0.77001E-07  1432   0.743E-04    0.121E-03
RMM:  17    -0.574487213801E+03   -0.32391E-05   -0.31572E-07  1375   0.523E-04    0.753E-04
RMM:  18    -0.574487214704E+03   -0.90255E-06   -0.13232E-07  1350   0.325E-04    0.303E-04
RMM:  19    -0.574487214944E+03   -0.23997E-06   -0.89762E-08  1137   0.261E-04    0.256E-04
RMM:  20    -0.574487215186E+03   -0.24207E-06   -0.21392E-08   947   0.156E-04    0.172E-04
RMM:  21    -0.574487215270E+03   -0.84234E-07   -0.10650E-08   882   0.103E-04    0.155E-04
RMM:  22    -0.574487215308E+03   -0.37722E-07   -0.78650E-09   827   0.915E-05    0.110E-04
RMM:  23    -0.574487215316E+03   -0.83055E-08   -0.32323E-09   717   0.631E-05
   8 F= -.57448722E+03 E0= -.57448722E+03  d E =-.208063E-01
 curvature:  -6.11 expect dE=-0.321E-01 dE for cont linesearch -0.526E-03
 ZBRENT: extrapolating
 opt :   6.0490  next Energy=  -574.487900 (dE=-0.215E-01)
 bond charge predicted
       N       E                     dE             d eps       ncg     rms          rms(c)
DAV:   1    -0.574484096330E+03    0.31190E-02   -0.18777E+00  1488   0.209E+00    0.267E-01
RMM:   2    -0.574487489093E+03   -0.33928E-02   -0.38992E-02  1379   0.340E-01    0.634E-02
RMM:   3    -0.574488156868E+03   -0.66777E-03   -0.85078E-03  1565   0.149E-01    0.109E-01
RMM:   4    -0.574488216050E+03   -0.59182E-04   -0.13017E-03  1554   0.540E-02    0.864E-02
RMM:   5    -0.574488093171E+03    0.12288E-03   -0.21832E-04  1390   0.222E-02    0.555E-02
RMM:   6    -0.574488052330E+03    0.40841E-04   -0.10874E-03  1434   0.357E-02    0.356E-02
RMM:   7    -0.574488023362E+03    0.28967E-04   -0.89952E-05  1408   0.140E-02    0.268E-02
RMM:   8    -0.574488013738E+03    0.96242E-05   -0.24798E-04  1439   0.139E-02    0.958E-03
RMM:   9    -0.574488010442E+03    0.32964E-05   -0.13513E-05  1508   0.547E-03    0.524E-03
RMM:  10    -0.574488012164E+03   -0.17223E-05   -0.74345E-06  1427   0.281E-03    0.266E-03
RMM:  11    -0.574488015947E+03   -0.37827E-05   -0.32215E-06  1612   0.160E-03    0.201E-03
RMM:  12    -0.574488018963E+03   -0.30164E-05   -0.57890E-07  1482   0.784E-04    0.727E-04
RMM:  13    -0.574488023259E+03   -0.42957E-05   -0.32134E-07  1379   0.482E-04    0.656E-04
RMM:  14    -0.574488025342E+03   -0.20829E-05   -0.20642E-07  1285   0.399E-04    0.758E-04
RMM:  15    -0.574488027931E+03   -0.25888E-05   -0.13111E-07  1195   0.338E-04    0.415E-04
RMM:  16    -0.574488028499E+03   -0.56867E-06   -0.11305E-07  1233   0.289E-04    0.338E-04
RMM:  17    -0.574488029077E+03   -0.57788E-06   -0.59397E-08  1118   0.232E-04    0.338E-04
RMM:  18    -0.574488029219E+03   -0.14171E-06   -0.14371E-08   905   0.129E-04    0.249E-04
RMM:  19    -0.574488029260E+03   -0.40858E-07   -0.25327E-08   931   0.140E-04    0.579E-05
RMM:  20    -0.574488029286E+03   -0.26674E-07   -0.51785E-09   810   0.873E-05    0.690E-05
RMM:  21    -0.574488029300E+03   -0.13042E-07   -0.24063E-09   689   0.554E-05    0.478E-05
RMM:  22    -0.574488029303E+03   -0.39690E-08   -0.13969E-09   517   0.429E-05
   9 F= -.57448803E+03 E0= -.57448803E+03  d E =-.216203E-01
 curvature:  -7.95 expect dE=-0.541E-01 dE for cont linesearch -0.478E-04
 trial: gam= 0.65980 g(F)=  0.681E-02 g(S)=  0.000E+00 ort = 0.331E-03 (trialstep = 0.228E+01)
 search vector abs. value=  0.152E-01
 bond charge predicted
       N       E                     dE             d eps       ncg     rms          rms(c)
DAV:   1    -0.574480993656E+03    0.70356E-02   -0.99097E+00  1464   0.482E+00    0.559E-01
RMM:   2    -0.574497540537E+03   -0.16547E-01   -0.19020E-01  1381   0.751E-01    0.141E-01
RMM:   3    -0.574500028016E+03   -0.24875E-02   -0.36878E-02  1576   0.327E-01    0.211E-01
RMM:   4    -0.574500240644E+03   -0.21263E-03   -0.60433E-03  1526   0.120E-01    0.167E-01
RMM:   5    -0.574499385664E+03    0.85498E-03   -0.23139E-03  1376   0.697E-02    0.556E-02
RMM:   6    -0.574499320536E+03    0.65129E-04   -0.23409E-03  1376   0.612E-02    0.619E-02
RMM:   7    -0.574499181898E+03    0.13864E-03   -0.37538E-04  1378   0.274E-02    0.197E-02
RMM:   8    -0.574499202793E+03   -0.20895E-04   -0.51394E-04  1508   0.233E-02    0.170E-02
RMM:   9    -0.574499199740E+03    0.30531E-05   -0.47067E-05  1498   0.109E-02    0.132E-02
RMM:  10    -0.574499203347E+03   -0.36077E-05   -0.11928E-05  1414   0.532E-03    0.975E-03
RMM:  11    -0.574499212877E+03   -0.95299E-05   -0.31597E-05  1448   0.509E-03    0.382E-03
RMM:  12    -0.574499216260E+03   -0.33825E-05   -0.50826E-06  1710   0.252E-03    0.312E-03
RMM:  13    -0.574499219521E+03   -0.32609E-05   -0.18345E-06  1385   0.148E-03    0.964E-04
RMM:  14    -0.574499225566E+03   -0.60454E-05   -0.69566E-07  1432   0.103E-03    0.176E-03
RMM:  15    -0.574499226465E+03   -0.89857E-06   -0.16077E-07  1337   0.469E-04    0.756E-04
RMM:  16    -0.574499229509E+03   -0.30442E-05   -0.20572E-07  1307   0.472E-04    0.743E-04
RMM:  17    -0.574499231068E+03   -0.15591E-05   -0.33262E-07  1495   0.513E-04    0.701E-04
RMM:  18    -0.574499231973E+03   -0.90523E-06   -0.82060E-08  1182   0.296E-04    0.469E-04
RMM:  19    -0.574499232298E+03   -0.32484E-06   -0.54775E-08  1093   0.212E-04    0.344E-04
RMM:  20    -0.574499232409E+03   -0.11081E-06   -0.16098E-08   905   0.146E-04    0.987E-05
RMM:  21    -0.574499232429E+03   -0.20078E-07   -0.58714E-09   804   0.855E-05    0.390E-05
RMM:  22    -0.574499232434E+03   -0.45984E-08   -0.20889E-09   649   0.526E-05
  10 F= -.57449923E+03 E0= -.57449923E+03  d E =-.112031E-01
 trial-energy change:   -0.011203  1 .order   -0.011571   -0.016033   -0.007109
 step:   4.0999(harm=  4.0999)  dis= 0.01651  next Energy=  -574.502431 (dE=-0.144E-01)
 bond charge predicted
       N       E                     dE             d eps       ncg     rms          rms(c)
DAV:   1    -0.574490629308E+03    0.86031E-02   -0.62859E+00  1456   0.386E+00    0.445E-01
RMM:   2    -0.574501268018E+03   -0.10639E-01   -0.12222E-01  1381   0.600E-01    0.111E-01
RMM:   3    -0.574502878197E+03   -0.16102E-02   -0.23680E-02  1575   0.260E-01    0.165E-01
RMM:   4    -0.574503018130E+03   -0.13993E-03   -0.38890E-03  1530   0.959E-02    0.132E-01
RMM:   5    -0.574502489886E+03    0.52824E-03   -0.13398E-03  1377   0.533E-02    0.477E-02
RMM:   6    -0.574502437503E+03    0.52384E-04   -0.16535E-03  1376   0.506E-02    0.513E-02
RMM:   7    -0.574502344464E+03    0.93039E-04   -0.29226E-04  1376   0.231E-02    0.143E-02
RMM:   8    -0.574502363534E+03   -0.19070E-04   -0.34609E-04  1500   0.189E-02    0.157E-02
RMM:   9    -0.574502359976E+03    0.35579E-05   -0.33256E-05  1521   0.887E-03    0.125E-02
RMM:  10    -0.574502360631E+03   -0.65555E-06   -0.75930E-06  1475   0.411E-03    0.106E-02
RMM:  11    -0.574502365801E+03   -0.51694E-05   -0.34994E-05  1437   0.506E-03    0.373E-03
RMM:  12    -0.574502369576E+03   -0.37754E-05   -0.71511E-06  1696   0.307E-03    0.465E-03
RMM:  13    -0.574502370178E+03   -0.60176E-06   -0.69084E-07  1389   0.105E-03    0.311E-03
RMM:  14    -0.574502375020E+03   -0.48418E-05   -0.56211E-06  1545   0.227E-03    0.241E-03
RMM:  15    -0.574502376254E+03   -0.12342E-05   -0.38608E-07  1511   0.858E-04    0.220E-03
RMM:  16    -0.574502376808E+03   -0.55409E-06   -0.20355E-07  1326   0.493E-04    0.122E-03
RMM:  17    -0.574502378407E+03   -0.15994E-05   -0.39499E-07  1443   0.655E-04    0.478E-04
RMM:  18    -0.574502379221E+03   -0.81371E-06   -0.63373E-08  1140   0.317E-04    0.163E-04
RMM:  19    -0.574502380220E+03   -0.99928E-06   -0.93730E-08  1186   0.255E-04    0.264E-04
RMM:  20    -0.574502380383E+03   -0.16287E-06   -0.29047E-08   990   0.186E-04    0.431E-04
RMM:  21    -0.574502380418E+03   -0.34710E-07   -0.76767E-09   841   0.107E-04    0.364E-04
RMM:  22    -0.574502380423E+03   -0.46603E-08   -0.19736E-08   928   0.150E-04
  11 F= -.57450238E+03 E0= -.57450238E+03  d E =-.143511E-01
 curvature:  -4.43 expect dE=-0.230E-01 dE for cont linesearch -0.681E-06
 trial: gam= 0.83872 g(F)=  0.519E-02 g(S)=  0.000E+00 ort = 0.483E-04 (trialstep = 0.252E+01)
 search vector abs. value=  0.160E-01
 bond charge predicted
       N       E                     dE             d eps       ncg     rms          rms(c)
DAV:   1    -0.574494862497E+03    0.75179E-02   -0.70834E+00  1432   0.400E+00    0.671E-01
RMM:   2    -0.574509887226E+03   -0.15025E-01   -0.17179E-01  1377   0.732E-01    0.127E-01
RMM:   3    -0.574514231971E+03   -0.43447E-02   -0.47454E-02  1637   0.336E-01    0.306E-01
RMM:   4    -0.574514418498E+03   -0.18653E-03   -0.48512E-03  1491   0.110E-01    0.243E-01
RMM:   5    -0.574514151246E+03    0.26725E-03   -0.58293E-04  1507   0.368E-02    0.212E-01
RMM:   6    -0.574513713553E+03    0.43769E-03   -0.72368E-03  1572   0.822E-02    0.808E-02
RMM:   7    -0.574513899202E+03   -0.18565E-03   -0.68462E-04  1557   0.351E-02    0.977E-02
RMM:   8    -0.574513567964E+03    0.33124E-03   -0.54050E-04  1452   0.234E-02    0.505E-02
RMM:   9    -0.574513524542E+03    0.43422E-04   -0.50847E-04  1473   0.213E-02    0.230E-02
RMM:  10    -0.574513526963E+03   -0.24206E-05   -0.60256E-05  1523   0.113E-02    0.993E-03
RMM:  11    -0.574513532639E+03   -0.56757E-05   -0.23874E-05  1478   0.600E-03    0.451E-03
RMM:  12    -0.574513538170E+03   -0.55316E-05   -0.35886E-06  1486   0.260E-03    0.324E-03
RMM:  13    -0.574513541054E+03   -0.28837E-05   -0.30886E-06  1449   0.194E-03    0.220E-03
RMM:  14    -0.574513543281E+03   -0.22269E-05   -0.55284E-07  1422   0.959E-04    0.650E-04
RMM:  15    -0.574513545899E+03   -0.26182E-05   -0.44956E-07  1415   0.718E-04    0.778E-04
RMM:  16    -0.574513547990E+03   -0.20908E-05   -0.11561E-07  1197   0.383E-04    0.382E-04
RMM:  17    -0.574513548955E+03   -0.96540E-06   -0.84734E-08  1206   0.283E-04    0.269E-04
RMM:  18    -0.574513549691E+03   -0.73615E-06   -0.45284E-08  1011   0.185E-04    0.153E-04
RMM:  19    -0.574513549904E+03   -0.21226E-06   -0.29180E-08   979   0.133E-04    0.120E-04
RMM:  20    -0.574513549920E+03   -0.16145E-07   -0.44340E-09   812   0.792E-05    0.105E-04
RMM:  21    -0.574513549923E+03   -0.31578E-08   -0.28307E-09   735   0.590E-05
  12 F= -.57451355E+03 E0= -.57451355E+03  d E =-.111695E-01
 trial-energy change:   -0.011170  1 .order   -0.011283   -0.013171   -0.009395
 step:   8.7847(harm=  8.7847)  dis= 0.02860  next Energy=  -574.525351 (dE=-0.230E-01)
 bond charge predicted
       N       E                     dE             d eps       ncg     rms          rms(c)
DAV:   1    -0.574406966403E+03    0.10658E+00   -0.43822E+01  1424   0.995E+00    0.168E+00
RMM:   2    -0.574501330533E+03   -0.94364E-01   -0.10836E+00  1380   0.183E+00    0.328E-01
RMM:   3    -0.574528085049E+03   -0.26755E-01   -0.29433E-01  1635   0.837E-01    0.761E-01
RMM:   4    -0.574528824245E+03   -0.73920E-03   -0.29407E-02  1489   0.272E-01    0.585E-01
RMM:   5    -0.574526100991E+03    0.27233E-02   -0.41430E-03  1430   0.100E-01    0.447E-01
RMM:   6    -0.574524691722E+03    0.14093E-02   -0.37059E-02  1573   0.193E-01    0.176E-01
RMM:   7    -0.574524614175E+03    0.77547E-04   -0.17643E-03  1440   0.670E-02    0.173E-01
RMM:   8    -0.574523554187E+03    0.10600E-02   -0.67601E-03  1556   0.737E-02    0.289E-02
RMM:   9    -0.574523568980E+03   -0.14792E-04   -0.30461E-04  1449   0.274E-02    0.359E-02
RMM:  10    -0.574523581669E+03   -0.12689E-04   -0.65401E-05  1432   0.131E-02    0.110E-02
RMM:  11    -0.574523614392E+03   -0.32723E-04   -0.73108E-05  1442   0.110E-02    0.143E-02
RMM:  12    -0.574523622482E+03   -0.80901E-05   -0.10191E-05  1378   0.486E-03    0.449E-03
RMM:  13    -0.574523636020E+03   -0.13538E-04   -0.59550E-06  1472   0.288E-03    0.169E-03
RMM:  14    -0.574523648135E+03   -0.12115E-04   -0.15988E-06  1633   0.145E-03    0.145E-03
RMM:  15    -0.574523653265E+03   -0.51304E-05   -0.67864E-07  1383   0.977E-04    0.107E-03
RMM:  16    -0.574523664579E+03   -0.11314E-04   -0.66620E-07  1387   0.684E-04    0.414E-04
RMM:  17    -0.574523666919E+03   -0.23402E-05   -0.20230E-07  1190   0.346E-04    0.480E-04
RMM:  18    -0.574523668058E+03   -0.11388E-05   -0.15262E-07  1199   0.323E-04    0.373E-04
RMM:  19    -0.574523668228E+03   -0.17002E-06   -0.48446E-08  1030   0.217E-04    0.211E-04
RMM:  20    -0.574523668239E+03   -0.11107E-07   -0.62491E-09   857   0.114E-04    0.122E-04
RMM:  21    -0.574523668256E+03   -0.17113E-07   -0.46669E-09   829   0.816E-05    0.757E-05
RMM:  22    -0.574523668260E+03   -0.34961E-08   -0.17455E-09   714   0.556E-05
  13 F= -.57452367E+03 E0= -.57452367E+03  d E =-.212878E-01
 curvature: -13.40 expect dE=-0.117E+00 dE for cont linesearch -0.561E-04
 trial: gam= 1.70973 g(F)=  0.870E-02 g(S)=  0.000E+00 ort =-0.258E-03 (trialstep = 0.111E+01)
 search vector abs. value=  0.544E-01
 bond charge predicted
       N       E                     dE             d eps       ncg     rms          rms(c)
DAV:   1    -0.574517668793E+03    0.59995E-02   -0.51163E+00  1480   0.341E+00    0.601E-01
RMM:   2    -0.574528936162E+03   -0.11267E-01   -0.12978E-01  1378   0.626E-01    0.107E-01
RMM:   3    -0.574532243467E+03   -0.33073E-02   -0.36375E-02  1629   0.290E-01    0.281E-01
RMM:   4    -0.574532345100E+03   -0.10163E-03   -0.35756E-03  1499   0.948E-02    0.222E-01
RMM:   5    -0.574532054099E+03    0.29100E-03   -0.38043E-04  1483   0.316E-02    0.183E-01
RMM:   6    -0.574531809404E+03    0.24470E-03   -0.60234E-03  1570   0.733E-02    0.741E-02
RMM:   7    -0.574531891184E+03   -0.81780E-04   -0.39961E-04  1542   0.282E-02    0.867E-02
RMM:   8    -0.574531641601E+03    0.24958E-03   -0.38679E-04  1421   0.195E-02    0.442E-02
RMM:   9    -0.574531611787E+03    0.29814E-04   -0.45095E-04  1439   0.201E-02    0.151E-02
RMM:  10    -0.574531615620E+03   -0.38325E-05   -0.24245E-05  1507   0.870E-03    0.917E-03
RMM:  11    -0.574531622421E+03   -0.68011E-05   -0.19224E-05  1556   0.551E-03    0.499E-03
RMM:  12    -0.574531625739E+03   -0.33179E-05   -0.19544E-06  1447   0.184E-03    0.385E-03
RMM:  13    -0.574531627703E+03   -0.19638E-05   -0.31894E-06  1460   0.167E-03    0.960E-04
RMM:  14    -0.574531629660E+03   -0.19579E-05   -0.61189E-07  1529   0.962E-04    0.841E-04
RMM:  15    -0.574531631198E+03   -0.15376E-05   -0.10401E-07  1167   0.356E-04    0.877E-04
RMM:  16    -0.574531631650E+03   -0.45226E-06   -0.10518E-07  1217   0.314E-04    0.303E-04
RMM:  17    -0.574531632077E+03   -0.42641E-06   -0.12480E-07  1244   0.330E-04    0.444E-04
RMM:  18    -0.574531632155E+03   -0.78126E-07   -0.17506E-08   901   0.166E-04    0.337E-04
RMM:  19    -0.574531632160E+03   -0.51368E-08   -0.69103E-09   832   0.103E-04
  14 F= -.57453163E+03 E0= -.57453163E+03  d E =-.796390E-02
 ZBRENT: can't locate minimum, use default step
 trial-energy change:   -0.007964  1 .order   -0.007984   -0.009122   -0.006846
 step:   4.4207(harm=  4.4302)  dis= 0.03256  next Energy=  -574.544313 (dE=-0.206E-01)
 bond charge predicted
       N       E                     dE             d eps       ncg     rms          rms(c)
DAV:   1    -0.574415052534E+03    0.11658E+00   -0.46022E+01  1448   0.102E+01    0.181E+00
RMM:   2    -0.574518566417E+03   -0.10351E+00   -0.11972E+00  1384   0.189E+00    0.332E-01
RMM:   3    -0.574547936815E+03   -0.29370E-01   -0.32410E-01  1637   0.863E-01    0.840E-01
RMM:   4    -0.574548248123E+03   -0.31131E-03   -0.29849E-02  1488   0.275E-01    0.640E-01
RMM:   5    -0.574544514491E+03    0.37336E-02   -0.46302E-03  1395   0.108E-01    0.456E-01
RMM:   6    -0.574543469550E+03    0.10449E-02   -0.40701E-02  1560   0.199E-01    0.194E-01
RMM:   7    -0.574543123403E+03    0.34615E-03   -0.19810E-03  1470   0.686E-02    0.187E-01
RMM:   8    -0.574542052679E+03    0.10707E-02   -0.79905E-03  1558   0.798E-02    0.320E-02
RMM:   9    -0.574542042890E+03    0.97892E-05   -0.32347E-04  1445   0.285E-02    0.377E-02
RMM:  10    -0.574542064356E+03   -0.21466E-04   -0.73241E-05  1432   0.135E-02    0.127E-02
RMM:  11    -0.574542106632E+03   -0.42276E-04   -0.77154E-05  1465   0.112E-02    0.193E-02
RMM:  12    -0.574542111300E+03   -0.46682E-05   -0.12338E-05  1477   0.465E-03    0.109E-02
RMM:  13    -0.574542130212E+03   -0.18912E-04   -0.20232E-05  1393   0.455E-03    0.273E-03
RMM:  14    -0.574542133220E+03   -0.30083E-05   -0.28331E-06  1621   0.229E-03    0.113E-03
RMM:  15    -0.574542142212E+03   -0.89920E-05   -0.10618E-06  1536   0.121E-03    0.977E-04
RMM:  16    -0.574542146354E+03   -0.41424E-05   -0.41367E-07  1372   0.535E-04    0.148E-03
RMM:  17    -0.574542148480E+03   -0.21261E-05   -0.50010E-07  1381   0.658E-04    0.302E-04
RMM:  18    -0.574542149860E+03   -0.13795E-05   -0.37836E-07  1388   0.572E-04    0.101E-03
RMM:  19    -0.574542150072E+03   -0.21271E-06   -0.51119E-08  1095   0.269E-04    0.560E-04
RMM:  20    -0.574542150199E+03   -0.12625E-06   -0.74183E-08  1130   0.251E-04    0.161E-04
RMM:  21    -0.574542150220E+03   -0.21093E-07   -0.11618E-08   836   0.144E-04    0.108E-04
RMM:  22    -0.574542150266E+03   -0.46039E-07   -0.71931E-09   818   0.108E-04    0.862E-05
RMM:  23    -0.574542150278E+03   -0.12053E-07   -0.27895E-09   787   0.750E-05    0.117E-04
RMM:  24    -0.574542150288E+03   -0.10106E-07   -0.30821E-09   745   0.585E-05    0.322E-05
RMM:  25    -0.574542150298E+03   -0.10383E-07   -0.10618E-09   583   0.437E-05    0.286E-05
RMM:  26    -0.574542150305E+03   -0.61918E-08   -0.62137E-10   469   0.377E-05
  15 F= -.57454215E+03 E0= -.57454215E+03  d E =-.184820E-01
 curvature: -14.61 expect dE=-0.664E-01 dE for cont linesearch -0.218E-04
 trial: gam= 0.16735 g(F)=  0.454E-02 g(S)=  0.000E+00 ort =-0.285E-03 (trialstep = 0.177E+01)
 search vector abs. value=  0.597E-02
 bond charge predicted
       N       E                     dE             d eps       ncg     rms          rms(c)
DAV:   1    -0.574545473289E+03   -0.33230E-02   -0.82097E-01  1472   0.141E+00    0.214E-01
RMM:   2    -0.574547520714E+03   -0.20474E-02   -0.24061E-02  1376   0.285E-01    0.444E-02
RMM:   3    -0.574548149240E+03   -0.62853E-03   -0.69845E-03  1630   0.131E-01    0.103E-01
RMM:   4    -0.574548182213E+03   -0.32973E-04   -0.76853E-04  1502   0.427E-02    0.846E-02
RMM:   5    -0.574548125979E+03    0.56234E-04   -0.96918E-05  1455   0.156E-02    0.716E-02
RMM:   6    -0.574548122097E+03    0.38822E-05   -0.19190E-03  1607   0.420E-02    0.525E-02
RMM:   7    -0.574548095940E+03    0.26157E-04   -0.59653E-05  1423   0.126E-02    0.507E-02
RMM:   8    -0.574548004744E+03    0.91196E-04   -0.38522E-04  1574   0.165E-02    0.105E-02
RMM:   9    -0.574548006732E+03   -0.19878E-05   -0.40988E-05  1642   0.812E-03    0.405E-03
RMM:  10    -0.574548007879E+03   -0.11475E-05   -0.38644E-06  1462   0.253E-03    0.582E-03
RMM:  11    -0.574548006814E+03    0.10652E-05   -0.34084E-06  1445   0.196E-03    0.316E-03
RMM:  12    -0.574548007877E+03   -0.10630E-05   -0.59474E-06  1441   0.220E-03    0.177E-03
RMM:  13    -0.574548009440E+03   -0.15629E-05   -0.66991E-07  1494   0.109E-03    0.163E-03
RMM:  14    -0.574548011011E+03   -0.15709E-05   -0.35234E-07  1333   0.632E-04    0.927E-04
RMM:  15    -0.574548011818E+03   -0.80726E-06   -0.27429E-07  1382   0.520E-04    0.429E-04
RMM:  16    -0.574548012695E+03   -0.87625E-06   -0.80615E-08  1176   0.286E-04    0.279E-04
RMM:  17    -0.574548013089E+03   -0.39440E-06   -0.37299E-08   977   0.161E-04    0.223E-04
RMM:  18    -0.574548013243E+03   -0.15430E-06   -0.14286E-08   879   0.120E-04    0.115E-04
RMM:  19    -0.574548013324E+03   -0.81225E-07   -0.80542E-09   819   0.952E-05    0.450E-05
RMM:  20    -0.574548013360E+03   -0.35667E-07   -0.42714E-09   756   0.691E-05    0.334E-05
RMM:  21    -0.574548013380E+03   -0.19445E-07   -0.27194E-09   673   0.544E-05    0.163E-05
RMM:  22    -0.574548013386E+03   -0.61373E-08   -0.14760E-09   559   0.452E-05
  16 F= -.57454801E+03 E0= -.57454801E+03  d E =-.586308E-02
 trial-energy change:   -0.005863  1 .order   -0.005822   -0.007948   -0.003695
 step:   3.1594(harm=  3.3049)  dis= 0.00683  next Energy=  -574.549487 (dE=-0.734E-02)
 bond charge predicted
       N       E                     dE             d eps       ncg     rms          rms(c)
DAV:   1    -0.574548044464E+03   -0.31084E-04   -0.50815E-01  1440   0.112E+00    0.169E-01
RMM:   2    -0.574549311070E+03   -0.12666E-02   -0.14888E-02  1376   0.224E-01    0.350E-02
RMM:   3    -0.574549702041E+03   -0.39097E-03   -0.43428E-03  1637   0.103E-01    0.812E-02
RMM:   4    -0.574549721696E+03   -0.19655E-04   -0.47127E-04  1494   0.334E-02    0.668E-02
RMM:   5    -0.574549686290E+03    0.35407E-04   -0.60292E-05  1455   0.122E-02    0.563E-02
RMM:   6    -0.574549684809E+03    0.14810E-05   -0.11940E-03  1602   0.331E-02    0.416E-02
RMM:   7    -0.574549666731E+03    0.18078E-04   -0.37593E-05  1418   0.994E-03    0.397E-02
RMM:   8    -0.574549611347E+03    0.55384E-04   -0.24654E-04  1578   0.131E-02    0.788E-03
RMM:   9    -0.574549612669E+03   -0.13221E-05   -0.23166E-05  1647   0.623E-03    0.324E-03
RMM:  10    -0.574549613512E+03   -0.84360E-06   -0.26770E-06  1445   0.207E-03    0.481E-03
RMM:  11    -0.574549612655E+03    0.85719E-06   -0.26616E-06  1448   0.170E-03    0.243E-03
RMM:  12    -0.574549613405E+03   -0.75023E-06   -0.38205E-06  1427   0.178E-03    0.150E-03
RMM:  13    -0.574549614335E+03   -0.93010E-06   -0.42763E-07  1447   0.894E-04    0.136E-03
RMM:  14    -0.574549615329E+03   -0.99405E-06   -0.20314E-07  1281   0.510E-04    0.876E-04
RMM:  15    -0.574549615851E+03   -0.52184E-06   -0.21318E-07  1350   0.459E-04    0.359E-04
RMM:  16    -0.574549616416E+03   -0.56501E-06   -0.65102E-08  1143   0.266E-04    0.267E-04
RMM:  17    -0.574549616685E+03   -0.26880E-06   -0.25379E-08   938   0.137E-04    0.200E-04
RMM:  18    -0.574549616794E+03   -0.10881E-06   -0.13673E-08   867   0.118E-04    0.963E-05
RMM:  19    -0.574549616844E+03   -0.50335E-07   -0.56564E-09   808   0.859E-05    0.354E-05
RMM:  20    -0.574549616864E+03   -0.19765E-07   -0.28562E-09   671   0.561E-05    0.358E-05
RMM:  21    -0.574549616876E+03   -0.12078E-07   -0.25019E-09   717   0.542E-05    0.317E-05
RMM:  22    -0.574549616881E+03   -0.46202E-08   -0.10642E-09   553   0.427E-05
  17 F= -.57454962E+03 E0= -.57454962E+03  d E =-.746658E-02
 curvature:  -2.18 expect dE=-0.333E-02 dE for cont linesearch -0.214E-04
 trial: gam= 0.27310 g(F)=  0.153E-02 g(S)=  0.000E+00 ort = 0.243E-03 (trialstep = 0.205E+01)
 search vector abs. value=  0.211E-02
 bond charge predicted
       N       E                     dE             d eps       ncg     rms          rms(c)
DAV:   1    -0.574550715497E+03   -0.10986E-02   -0.53066E-01  1432   0.104E+00    0.134E-01
RMM:   2    -0.574551626530E+03   -0.91103E-03   -0.11851E-02  1392   0.185E-01    0.290E-02
RMM:   3    -0.574551786973E+03   -0.16044E-03   -0.26800E-03  1586   0.813E-02    0.532E-02
RMM:   4    -0.574551787300E+03   -0.32694E-06   -0.35611E-04  1536   0.270E-02    0.417E-02
RMM:   5    -0.574551727151E+03    0.60149E-04   -0.13077E-04  1378   0.152E-02    0.148E-02
RMM:   6    -0.574551716770E+03    0.10381E-04   -0.21035E-04  1377   0.170E-02    0.253E-02
RMM:   7    -0.574551696346E+03    0.20424E-04   -0.45716E-05  1404   0.827E-03    0.108E-02
RMM:   8    -0.574551698362E+03   -0.20154E-05   -0.11105E-04  1588   0.893E-03    0.116E-02
RMM:   9    -0.574551695380E+03    0.29815E-05   -0.75635E-06  1471   0.387E-03    0.804E-03
RMM:  10    -0.574551693725E+03    0.16556E-05   -0.44985E-06  1392   0.225E-03    0.416E-03
RMM:  11    -0.574551693416E+03    0.30853E-06   -0.62154E-06  1527   0.224E-03    0.179E-03
RMM:  12    -0.574551693454E+03   -0.37511E-07   -0.58194E-07  1455   0.937E-04    0.717E-04
RMM:  13    -0.574551693620E+03   -0.16619E-06   -0.11513E-07  1248   0.420E-04    0.436E-04
RMM:  14    -0.574551693990E+03   -0.37026E-06   -0.14423E-07  1244   0.361E-04    0.566E-04
RMM:  15    -0.574551694408E+03   -0.41775E-06   -0.87537E-08  1190   0.294E-04    0.702E-04
RMM:  16    -0.574551694726E+03   -0.31836E-06   -0.11327E-07  1224   0.270E-04    0.197E-04
RMM:  17    -0.574551694939E+03   -0.21266E-06   -0.60109E-08  1107   0.234E-04    0.404E-04
RMM:  18    -0.574551695069E+03   -0.13031E-06   -0.11579E-08   868   0.129E-04    0.251E-04
RMM:  19    -0.574551695110E+03   -0.41233E-07   -0.22145E-08   942   0.131E-04    0.467E-05
RMM:  20    -0.574551695129E+03   -0.18717E-07   -0.30673E-09   719   0.715E-05    0.354E-05
RMM:  21    -0.574551695143E+03   -0.13701E-07   -0.20295E-09   591   0.475E-05    0.277E-05
RMM:  22    -0.574551695144E+03   -0.16335E-08   -0.87032E-10   462   0.387E-05
  18 F= -.57455170E+03 E0= -.57455170E+03  d E =-.207826E-02
 trial-energy change:   -0.002078  1 .order   -0.002210   -0.003267   -0.001152
 step:   3.1617(harm=  3.1617)  dis= 0.00598  next Energy=  -574.552141 (dE=-0.252E-02)
 bond charge predicted
       N       E                     dE             d eps       ncg     rms          rms(c)
DAV:   1    -0.574551736752E+03   -0.41609E-04   -0.15755E-01  1456   0.570E-01    0.732E-02
RMM:   2    -0.574552008278E+03   -0.27153E-03   -0.35335E-03  1392   0.101E-01    0.159E-02
RMM:   3    -0.574552055095E+03   -0.46818E-04   -0.78400E-04  1583   0.444E-02    0.286E-02
RMM:   4    -0.574552055837E+03   -0.74129E-06   -0.11208E-04  1531   0.152E-02    0.226E-02
RMM:   5    -0.574552038308E+03    0.17529E-04   -0.39210E-05  1379   0.858E-03    0.866E-03
RMM:   6    -0.574552034613E+03    0.36951E-05   -0.63700E-05  1376   0.950E-03    0.130E-02
RMM:   7    -0.574552028655E+03    0.59576E-05   -0.14591E-05  1408   0.465E-03    0.537E-03
RMM:   8    -0.574552029339E+03   -0.68413E-06   -0.30073E-05  1575   0.470E-03    0.638E-03
RMM:   9    -0.574552028353E+03    0.98607E-06   -0.23443E-06  1437   0.212E-03    0.408E-03
RMM:  10    -0.574552027903E+03    0.45019E-06   -0.15331E-06  1405   0.129E-03    0.174E-03
RMM:  11    -0.574552027854E+03    0.49316E-07   -0.13281E-06  1536   0.107E-03    0.844E-04
RMM:  12    -0.574552027860E+03   -0.66429E-08   -0.15498E-07  1255   0.432E-04    0.309E-04
RMM:  13    -0.574552027913E+03   -0.52518E-07   -0.52115E-08  1046   0.241E-04    0.187E-04
RMM:  14    -0.574552028032E+03   -0.11972E-06   -0.24958E-08   982   0.170E-04    0.312E-04
RMM:  15    -0.574552028169E+03   -0.13709E-06   -0.10047E-08   855   0.107E-04    0.208E-04
RMM:  16    -0.574552028303E+03   -0.13338E-06   -0.68481E-08  1114   0.204E-04    0.308E-04
RMM:  17    -0.574552028323E+03   -0.20598E-07   -0.37517E-09   801   0.884E-05    0.242E-04
RMM:  18    -0.574552028352E+03   -0.28802E-07   -0.13019E-08   846   0.101E-04    0.428E-05
RMM:  19    -0.574552028366E+03   -0.13581E-07   -0.19967E-09   663   0.589E-05    0.543E-05
RMM:  20    -0.574552028374E+03   -0.82800E-08   -0.13870E-09   577   0.450E-05
  19 F= -.57455203E+03 E0= -.57455203E+03  d E =-.241149E-02
 curvature:  -2.09 expect dE=-0.142E-02 dE for cont linesearch -0.763E-06
 trial: gam= 0.42336 g(F)=  0.678E-03 g(S)=  0.000E+00 ort = 0.278E-04 (trialstep = 0.227E+01)
 search vector abs. value=  0.108E-02
 bond charge predicted
       N       E                     dE             d eps       ncg     rms          rms(c)
DAV:   1    -0.574552286948E+03   -0.25858E-03   -0.35792E-01  1456   0.911E-01    0.149E-01
RMM:   2    -0.574553099712E+03   -0.81276E-03   -0.94985E-03  1390   0.174E-01    0.307E-02
RMM:   3    -0.574553337509E+03   -0.23780E-03   -0.26892E-03  1616   0.809E-02    0.679E-02
RMM:   4    -0.574553351333E+03   -0.13824E-04   -0.31170E-04  1527   0.276E-02    0.546E-02
RMM:   5    -0.574553332485E+03    0.18848E-04   -0.34132E-05  1466   0.948E-03    0.459E-02
RMM:   6    -0.574553327628E+03    0.48574E-05   -0.60846E-04  1566   0.236E-02    0.277E-02
RMM:   7    -0.574553323909E+03    0.37193E-05   -0.22678E-05  1431   0.786E-03    0.280E-02
RMM:   8    -0.574553297559E+03    0.26350E-04   -0.69276E-05  1507   0.721E-03    0.104E-02
RMM:   9    -0.574553296711E+03    0.84773E-06   -0.28845E-05  1580   0.542E-03    0.272E-03
RMM:  10    -0.574553297172E+03   -0.46067E-06   -0.21221E-06  1525   0.210E-03    0.259E-03
RMM:  11    -0.574553297395E+03   -0.22322E-06   -0.40320E-07  1460   0.818E-04    0.187E-03
RMM:  12    -0.574553297769E+03   -0.37431E-06   -0.11638E-06  1412   0.964E-04    0.687E-04
RMM:  13    -0.574553297946E+03   -0.17643E-06   -0.10106E-07  1160   0.503E-04    0.417E-04
RMM:  14    -0.574553298165E+03   -0.21966E-06   -0.39520E-08  1058   0.268E-04    0.214E-04
RMM:  15    -0.574553298286E+03   -0.12019E-06   -0.19071E-08   925   0.160E-04    0.334E-04
RMM:  16    -0.574553298375E+03   -0.89727E-07   -0.11823E-08   896   0.126E-04    0.224E-04
RMM:  17    -0.574553298384E+03   -0.90295E-08   -0.56267E-09   834   0.861E-05
  20 F= -.57455330E+03 E0= -.57455330E+03  d E =-.127001E-02
 trial-energy change:   -0.001270  1 .order   -0.001285   -0.001565   -0.001005
 step:   6.3451(harm=  6.3451)  dis= 0.00680  next Energy=  -574.554216 (dE=-0.219E-02)
 bond charge predicted
       N       E                     dE             d eps       ncg     rms          rms(c)
DAV:   1    -0.574550885352E+03    0.24130E-02   -0.11542E+00  1440   0.164E+00    0.267E-01
RMM:   2    -0.574553514556E+03   -0.26292E-02   -0.30714E-02  1391   0.313E-01    0.551E-02
RMM:   3    -0.574554279979E+03   -0.76542E-03   -0.86662E-03  1617   0.145E-01    0.122E-01
RMM:   4    -0.574554320311E+03   -0.40333E-04   -0.97072E-04  1524   0.487E-02    0.979E-02
RMM:   5    -0.574554255314E+03    0.64998E-04   -0.11061E-04  1460   0.172E-02    0.812E-02
RMM:   6    -0.574554240921E+03    0.14393E-04   -0.19118E-03  1572   0.420E-02    0.494E-02
RMM:   7    -0.574554225782E+03    0.15139E-04   -0.67250E-05  1441   0.137E-02    0.490E-02
RMM:   8    -0.574554145273E+03    0.80509E-04   -0.23609E-04  1522   0.132E-02    0.170E-02
RMM:   9    -0.574554144308E+03    0.96456E-06   -0.78871E-05  1620   0.914E-03    0.509E-03
RMM:  10    -0.574554145420E+03   -0.11116E-05   -0.44099E-06  1500   0.308E-03    0.470E-03
RMM:  11    -0.574554146074E+03   -0.65413E-06   -0.11367E-06  1499   0.135E-03    0.358E-03
RMM:  12    -0.574554147062E+03   -0.98797E-06   -0.35847E-06  1432   0.169E-03    0.120E-03
RMM:  13    -0.574554147794E+03   -0.73183E-06   -0.33035E-07  1411   0.896E-04    0.558E-04
RMM:  14    -0.574554148430E+03   -0.63588E-06   -0.12439E-07  1261   0.480E-04    0.619E-04
RMM:  15    -0.574554148703E+03   -0.27334E-06   -0.53112E-08  1069   0.239E-04    0.596E-04
RMM:  16    -0.574554148962E+03   -0.25885E-06   -0.39463E-08  1051   0.203E-04    0.193E-04
RMM:  17    -0.574554149015E+03   -0.52685E-07   -0.33953E-08  1033   0.175E-04    0.145E-04
RMM:  18    -0.574554149061E+03   -0.46453E-07   -0.10389E-08   864   0.123E-04    0.738E-05
RMM:  19    -0.574554149076E+03   -0.14898E-07   -0.47375E-09   786   0.838E-05    0.839E-05
RMM:  20    -0.574554149082E+03   -0.63737E-08   -0.18930E-09   744   0.589E-05
  21 F= -.57455415E+03 E0= -.57455415E+03  d E =-.212071E-02
 curvature:  -4.96 expect dE=-0.306E-02 dE for cont linesearch -0.439E-05
 trial: gam= 0.84148 g(F)=  0.616E-03 g(S)=  0.000E+00 ort =-0.309E-04 (trialstep = 0.251E+01)
 search vector abs. value=  0.133E-02
 bond charge predicted
       N       E                     dE             d eps       ncg     rms          rms(c)
DAV:   1    -0.574553331833E+03    0.81724E-03   -0.51697E-01  1464   0.112E+00    0.194E-01
RMM:   2    -0.574554578033E+03   -0.12462E-02   -0.14405E-02  1376   0.220E-01    0.393E-02
RMM:   3    -0.574554941496E+03   -0.36346E-03   -0.41213E-03  1594   0.102E-01    0.879E-02
RMM:   4    -0.574554962960E+03   -0.21465E-04   -0.50248E-04  1541   0.362E-02    0.706E-02
RMM:   5    -0.574554936344E+03    0.26616E-04   -0.50867E-05  1477   0.118E-02    0.606E-02
RMM:   6    -0.574554915808E+03    0.20536E-04   -0.10381E-03  1611   0.300E-02    0.364E-02
RMM:   7    -0.574554907732E+03    0.80763E-05   -0.33636E-05  1483   0.925E-03    0.362E-02
RMM:   8    -0.574554865090E+03    0.42642E-04   -0.12350E-04  1551   0.988E-03    0.131E-02
RMM:   9    -0.574554863186E+03    0.19038E-05   -0.35655E-05  1664   0.625E-03    0.436E-03
RMM:  10    -0.574554864504E+03   -0.13174E-05   -0.73287E-06  1446   0.314E-03    0.595E-03
RMM:  11    -0.574554863568E+03    0.93600E-06   -0.87941E-07  1461   0.126E-03    0.458E-03
RMM:  12    -0.574554863023E+03    0.54450E-06   -0.62458E-06  1534   0.198E-03    0.158E-03
RMM:  13    -0.574554863049E+03   -0.25873E-07   -0.38133E-07  1492   0.823E-04    0.111E-03
RMM:  14    -0.574554863094E+03   -0.44474E-07   -0.14615E-07  1291   0.475E-04    0.717E-04
RMM:  15    -0.574554863102E+03   -0.81236E-08   -0.54225E-08  1165   0.261E-04
  22 F= -.57455486E+03 E0= -.57455486E+03  d E =-.714020E-03
 trial-energy change:   -0.000714  1 .order   -0.000782   -0.001478   -0.000086
 step:   2.7346(harm=  2.6617)  dis= 0.00334  next Energy=  -574.554867 (dE=-0.718E-03)
 bond charge predicted
       N       E                     dE             d eps       ncg     rms          rms(c)
DAV:   1    -0.574554847070E+03    0.16024E-04   -0.42391E-03  1592   0.101E-01    0.178E-02
RMM:   2    -0.574554857311E+03   -0.10241E-04   -0.11983E-04  1376   0.201E-02    0.362E-03
RMM:   3    -0.574554860463E+03   -0.31518E-05   -0.35175E-05  1606   0.941E-03    0.791E-03
RMM:   4    -0.574554860644E+03   -0.18142E-06   -0.41476E-06  1524   0.327E-03    0.634E-03
RMM:   5    -0.574554860426E+03    0.21771E-06   -0.44383E-07  1431   0.110E-03    0.539E-03
RMM:   6    -0.574554860420E+03    0.65738E-08   -0.86699E-06  1519   0.277E-03    0.334E-03
RMM:   7    -0.574554860330E+03    0.89745E-07   -0.39603E-07  1461   0.976E-04    0.326E-03
RMM:   8    -0.574554859935E+03    0.39462E-06   -0.11242E-06  1475   0.948E-04    0.103E-03
RMM:   9    -0.574554859923E+03    0.12256E-07   -0.28516E-07  1444   0.562E-04    0.435E-04
RMM:  10    -0.574554859924E+03   -0.12915E-08   -0.27511E-08   961   0.237E-04
  23 F= -.57455486E+03 E0= -.57455486E+03  d E =-.710842E-03
 curvature:  -2.33 expect dE=-0.761E-03 dE for cont linesearch -0.245E-05
 trial: gam= 0.52875 g(F)=  0.327E-03 g(S)=  0.000E+00 ort =-0.374E-04 (trialstep = 0.255E+01)
 search vector abs. value=  0.658E-03
 bond charge predicted
       N       E                     dE             d eps       ncg     rms          rms(c)
DAV:   1    -0.574554687294E+03    0.17263E-03   -0.15769E-01  1480   0.563E-01    0.138E-01
RMM:   2    -0.574555168599E+03   -0.48131E-03   -0.56236E-03  1388   0.130E-01    0.240E-02
RMM:   3    -0.574555356257E+03   -0.18766E-03   -0.19438E-03  1605   0.621E-02    0.687E-02
RMM:   4    -0.574555360919E+03   -0.46621E-05   -0.17539E-04  1530   0.207E-02    0.547E-02
RMM:   5    -0.574555356134E+03    0.47848E-05   -0.14215E-05  1583   0.598E-03    0.520E-02
RMM:   6    -0.574555347222E+03    0.89124E-05   -0.41675E-06  1418   0.306E-03    0.483E-02
RMM:   7    -0.574555335093E+03    0.12129E-04   -0.40647E-04  1903   0.162E-02    0.227E-02
RMM:   8    -0.574555342662E+03   -0.75698E-05   -0.10863E-05  1564   0.405E-03    0.234E-02
RMM:   9    -0.574555323721E+03    0.18941E-04   -0.31136E-05  1560   0.517E-03    0.118E-02
RMM:  10    -0.574555320007E+03    0.37145E-05   -0.27985E-05  1626   0.484E-03    0.576E-03
RMM:  11    -0.574555319805E+03    0.20189E-06   -0.13649E-06  1452   0.196E-03    0.363E-03
RMM:  12    -0.574555320061E+03   -0.25615E-06   -0.20958E-06  1520   0.151E-03    0.302E-03
RMM:  13    -0.574555320037E+03    0.24589E-07   -0.14689E-07  1316   0.629E-04    0.264E-03
RMM:  14    -0.574555319988E+03    0.48516E-07   -0.60953E-07  1483   0.797E-04    0.111E-03
RMM:  15    -0.574555320006E+03   -0.17673E-07   -0.26765E-07  1437   0.514E-04    0.464E-04
RMM:  16    -0.574555320066E+03   -0.60263E-07   -0.86019E-08  1192   0.315E-04    0.199E-04
RMM:  17    -0.574555320083E+03   -0.16506E-07   -0.86640E-09   850   0.122E-04    0.768E-05
RMM:  18    -0.574555320116E+03   -0.33346E-07   -0.49288E-09   813   0.798E-05    0.966E-05
RMM:  19    -0.574555320144E+03   -0.27638E-07   -0.28133E-09   720   0.575E-05    0.113E-04
RMM:  20    -0.574555320155E+03   -0.11471E-07   -0.11832E-09   538   0.427E-05    0.410E-05
RMM:  21    -0.574555320164E+03   -0.87894E-08   -0.15340E-09   626   0.461E-05
  24 F= -.57455532E+03 E0= -.57455532E+03  d E =-.460239E-03
 trial-energy change:   -0.000460  1 .order   -0.000492   -0.000783   -0.000202
 step:   3.4383(harm=  3.4383)  dis= 0.00314  next Energy=  -574.555387 (dE=-0.528E-03)
 bond charge predicted
       N       E                     dE             d eps       ncg     rms          rms(c)
DAV:   1    -0.574555282367E+03    0.37788E-04   -0.18989E-02  1536   0.195E-01    0.480E-02
RMM:   2    -0.574555340042E+03   -0.57675E-04   -0.67737E-04  1385   0.449E-02    0.834E-03
RMM:   3    -0.574555362911E+03   -0.22869E-04   -0.23664E-04  1608   0.216E-02    0.238E-02
RMM:   4    -0.574555363361E+03   -0.45011E-06   -0.21245E-05  1525   0.719E-03    0.191E-02
RMM:   5    -0.574555362772E+03    0.58852E-06   -0.17747E-06  1588   0.209E-03    0.182E-02
RMM:   6    -0.574555361952E+03    0.82004E-06   -0.39708E-07  1369   0.978E-04    0.173E-02
RMM:   7    -0.574555359970E+03    0.19825E-05   -0.44848E-05  1864   0.539E-03    0.790E-03
RMM:   8    -0.574555361658E+03   -0.16885E-05   -0.33080E-06  1641   0.188E-03    0.878E-03
RMM:   9    -0.574555358842E+03    0.28167E-05   -0.64609E-06  1597   0.224E-03    0.358E-03
RMM:  10    -0.574555358504E+03    0.33767E-06   -0.24664E-06  1600   0.154E-03    0.215E-03
RMM:  11    -0.574555358485E+03    0.18666E-07   -0.15208E-07  1349   0.619E-04    0.149E-03
RMM:  12    -0.574555358495E+03   -0.91459E-08   -0.25294E-07  1337   0.538E-04    0.102E-03
RMM:  13    -0.574555358501E+03   -0.62100E-08   -0.27578E-08  1011   0.269E-04
  25 F= -.57455536E+03 E0= -.57455536E+03  d E =-.498576E-03
 curvature:  -3.69 expect dE=-0.776E-03 dE for cont linesearch -0.230E-05
 trial: gam= 0.52714 g(F)=  0.210E-03 g(S)=  0.000E+00 ort = 0.203E-04 (trialstep = 0.273E+01)
 search vector abs. value=  0.415E-03
 bond charge predicted
       N       E                     dE             d eps       ncg     rms          rms(c)
DAV:   1    -0.574555301463E+03    0.57032E-04   -0.11420E-01  1424   0.471E-01    0.117E-01
RMM:   2    -0.574555657307E+03   -0.35584E-03   -0.41471E-03  1378   0.110E-01    0.191E-02
RMM:   3    -0.574555792345E+03   -0.13504E-03   -0.13943E-03  1629   0.527E-02    0.584E-02
RMM:   4    -0.574555795121E+03   -0.27758E-05   -0.12278E-04  1506   0.170E-02    0.466E-02
RMM:   5    -0.574555792033E+03    0.30882E-05   -0.11461E-05  1610   0.519E-03    0.447E-02
RMM:   6    -0.574555784939E+03    0.70940E-05   -0.34362E-06  1424   0.271E-03    0.419E-02
RMM:   7    -0.574555773943E+03    0.10996E-04   -0.28609E-04  1840   0.135E-02    0.215E-02
RMM:   8    -0.574555786318E+03   -0.12376E-04   -0.24953E-05  1581   0.520E-03    0.245E-02
RMM:   9    -0.574555765228E+03    0.21091E-04   -0.55752E-05  1646   0.646E-03    0.965E-03
RMM:  10    -0.574555763403E+03    0.18251E-05   -0.16771E-05  1685   0.403E-03    0.536E-03
RMM:  11    -0.574555763253E+03    0.15014E-06   -0.11852E-06  1514   0.160E-03    0.364E-03
RMM:  12    -0.574555763620E+03   -0.36754E-06   -0.17685E-06  1403   0.142E-03    0.339E-03
RMM:  13    -0.574555763469E+03    0.15067E-06   -0.73910E-07  1513   0.999E-04    0.174E-03
RMM:  14    -0.574555763483E+03   -0.13712E-07   -0.56245E-07  1474   0.625E-04    0.743E-04
RMM:  15    -0.574555763615E+03   -0.13139E-06   -0.96511E-08  1167   0.356E-04    0.613E-04
RMM:  16    -0.574555763727E+03   -0.11239E-06   -0.49636E-08  1031   0.204E-04    0.256E-04
RMM:  17    -0.574555763824E+03   -0.96745E-07   -0.29186E-08   946   0.171E-04    0.101E-04
RMM:  18    -0.574555763885E+03   -0.61522E-07   -0.73541E-09   846   0.116E-04    0.140E-04
RMM:  19    -0.574555763919E+03   -0.33549E-07   -0.57935E-09   822   0.833E-05    0.642E-05
RMM:  20    -0.574555763927E+03   -0.83164E-08   -0.31935E-09   777   0.667E-05
  26 F= -.57455576E+03 E0= -.57455576E+03  d E =-.405426E-03
 trial-energy change:   -0.000405  1 .order   -0.000417   -0.000603   -0.000231
 step:   5.5002(harm=  4.4269)  dis= 0.00417  next Energy=  -574.555869 (dE=-0.510E-03)
 reached required accuracy - stopping structural energy minimisation
