unknown system                          
           1
    -8.914757    8.914757    0.000000
   -17.829514    0.000000    0.000000
     0.000000    0.000000   27.600824
   Na   O    Cl
    96    32    32
Direct configuration=     1
   0.25000009  0.00000000  0.29813200
   0.00000005  0.12500002  0.21738481
   0.25000009  0.00000000  0.45962639
   0.00000005  0.12500002  0.37887921
   0.25000009  0.00000000  0.62112079
   0.00000005  0.12500002  0.54037361
   0.25000009  0.00000000  0.78261519
   0.00000005  0.12500002  0.70186800
   0.25000009  0.12499998  0.21738481
   0.25000009  0.25000000  0.29813200
   0.00000005  0.37500002  0.21738481
   0.25000009  0.12499998  0.37887921
   0.25000009  0.25000000  0.45962639
   0.00000005  0.37500002  0.37887921
   0.25000009  0.12499998  0.54037361
   0.25000009  0.25000000  0.62112079
   0.00000005  0.37500002  0.54037361
   0.25000009  0.12499998  0.70186800
   0.25000009  0.25000000  0.78261519
   0.00000005  0.37500002  0.70186800
   0.25000009  0.37499998  0.21738481
   0.25000009  0.50000000  0.29813200
   0.00000005  0.62500002  0.21738481
   0.25000009  0.37499998  0.37887921
   0.25000009  0.50000000  0.45962639
   0.00000005  0.62500002  0.37887921
   0.25000009  0.37499998  0.54037361
   0.25000009  0.50000000  0.62112079
   0.00000005  0.62500002  0.54037361
   0.25000009  0.37499998  0.70186800
   0.25000009  0.50000000  0.78261519
   0.00000005  0.62500002  0.70186800
   0.25000009  0.62499998  0.21738481
   0.25000009  0.75000000  0.29813200
   0.00000005  0.87500002  0.21738481
   0.25000009  0.62499998  0.37887921
   0.25000009  0.75000000  0.45962639
   0.00000005  0.87500002  0.37887921
   0.25000009  0.62499998  0.54037361
   0.25000009  0.75000000  0.62112079
   0.00000005  0.87500002  0.54037361
   0.25000009  0.62499998  0.70186800
   0.25000009  0.75000000  0.78261519
   0.00000005  0.87500002  0.70186800
   0.25000009  0.87499998  0.21738481
   0.25000009  0.87499998  0.37887921
   0.25000009  0.87499998  0.54037361
   0.25000009  0.87499998  0.70186800
   0.75000009  0.00000000  0.29813200
   0.50000005  0.12500002  0.21738481
   0.75000009  0.00000000  0.45962639
   0.50000005  0.12500002  0.37887921
   0.75000009  0.00000000  0.62112079
   0.50000005  0.12500002  0.54037361
   0.75000009  0.00000000  0.78261519
   0.50000005  0.12500002  0.70186800
   0.75000009  0.12499998  0.21738481
   0.75000009  0.25000000  0.29813200
   0.50000005  0.37500002  0.21738481
   0.75000009  0.12499998  0.37887921
   0.75000009  0.25000000  0.45962639
   0.50000005  0.37500002  0.37887921
   0.75000009  0.12499998  0.54037361
   0.75000009  0.25000000  0.62112079
   0.50000005  0.37500002  0.54037361
   0.75000009  0.12499998  0.70186800
   0.75000009  0.25000000  0.78261519
   0.50000005  0.37500002  0.70186800
   0.75000009  0.37499998  0.21738481
   0.75000009  0.50000000  0.29813200
   0.50000005  0.62500002  0.21738481
   0.75000009  0.37499998  0.37887921
   0.75000009  0.50000000  0.45962639
   0.50000005  0.62500002  0.37887921
   0.75000009  0.37499998  0.54037361
   0.75000009  0.50000000  0.62112079
   0.50000005  0.62500002  0.54037361
   0.75000009  0.37499998  0.70186800
   0.75000009  0.50000000  0.78261519
   0.50000005  0.62500002  0.70186800
   0.75000009  0.62499998  0.21738481
   0.75000009  0.75000000  0.29813200
   0.50000005  0.87500002  0.21738481
   0.75000009  0.62499998  0.37887921
   0.75000009  0.75000000  0.45962639
   0.50000005  0.87500002  0.37887921
   0.75000009  0.62499998  0.54037361
   0.75000009  0.75000000  0.62112079
   0.50000005  0.87500002  0.54037361
   0.75000009  0.62499998  0.70186800
   0.75000009  0.75000000  0.78261519
   0.50000005  0.87500002  0.70186800
   0.75000009  0.87499998  0.21738481
   0.75000009  0.87499998  0.37887921
   0.75000009  0.87499998  0.54037361
   0.75000009  0.87499998  0.70186800
   0.25000009  0.00000000  0.21738481
   0.25000009  0.00000000  0.37887921
   0.25000009  0.00000000  0.54037361
   0.25000009  0.00000000  0.70186800
   0.25000009  0.25000000  0.21738481
   0.25000009  0.25000000  0.37887921
   0.25000009  0.25000000  0.54037361
   0.25000009  0.25000000  0.70186800
   0.25000009  0.50000000  0.21738481
   0.25000009  0.50000000  0.37887921
   0.25000009  0.50000000  0.54037361
   0.25000009  0.50000000  0.70186800
   0.25000009  0.75000000  0.21738481
   0.25000009  0.75000000  0.37887921
   0.25000009  0.75000000  0.54037361
   0.25000009  0.75000000  0.70186800
   0.75000009  0.00000000  0.21738481
   0.75000009  0.00000000  0.37887921
   0.75000009  0.00000000  0.54037361
   0.75000009  0.00000000  0.70186800
   0.75000009  0.25000000  0.21738481
   0.75000009  0.25000000  0.37887921
   0.75000009  0.25000000  0.54037361
   0.75000009  0.25000000  0.70186800
   0.75000009  0.50000000  0.21738481
   0.75000009  0.50000000  0.37887921
   0.75000009  0.50000000  0.54037361
   0.75000009  0.50000000  0.70186800
   0.75000009  0.75000000  0.21738481
   0.75000009  0.75000000  0.37887921
   0.75000009  0.75000000  0.54037361
   0.75000009  0.75000000  0.70186800
   0.00000005  0.00000000  0.29813200
   0.00000005  0.00000000  0.45962639
   0.00000005  0.00000000  0.62112079
   0.00000005  0.00000000  0.78261519
   0.00000005  0.25000000  0.29813200
   0.00000005  0.25000000  0.45962639
   0.00000005  0.25000000  0.62112079
   0.00000005  0.25000000  0.78261519
   0.00000005  0.50000000  0.29813200
   0.00000005  0.50000000  0.45962639
   0.00000005  0.50000000  0.62112079
   0.00000005  0.50000000  0.78261519
   0.00000005  0.75000000  0.29813200
   0.00000005  0.75000000  0.45962639
   0.00000005  0.75000000  0.62112079
   0.00000005  0.75000000  0.78261519
   0.50000005  0.00000000  0.29813200
   0.50000005  0.00000000  0.45962639
   0.50000005  0.00000000  0.62112079
   0.50000005  0.00000000  0.78261519
   0.50000005  0.25000000  0.29813200
   0.50000005  0.25000000  0.45962639
   0.50000005  0.25000000  0.62112079
   0.50000005  0.25000000  0.78261519
   0.50000005  0.50000000  0.29813200
   0.50000005  0.50000000  0.45962639
   0.50000005  0.50000000  0.62112079
   0.50000005  0.50000000  0.78261519
   0.50000005  0.75000000  0.29813200
   0.50000005  0.75000000  0.45962639
   0.50000005  0.75000000  0.62112079
   0.50000005  0.75000000  0.78261519
Direct configuration=     2
   0.25000009 -0.00000000  0.29816366
   0.00002386  0.12497561  0.21718438
   0.25000009 -0.00000000  0.45963873
  -0.00004349  0.12503979  0.37888123
   0.25000009 -0.00000000  0.62109653
  -0.00000925  0.12500546  0.54038111
   0.25000008  0.00000000  0.78264437
   0.00000302  0.12499355  0.70192223
   0.24998514  0.12497900  0.21718881
   0.25000009  0.25000000  0.29817474
  -0.00002373  0.37502440  0.21718438
   0.25000297  0.12501008  0.37888016
   0.25000009  0.25000000  0.45962343
   0.00004363  0.37496023  0.37888123
   0.24999112  0.12500230  0.54037742
   0.25000009  0.25000000  0.62113457
   0.00000939  0.37499456  0.54038111
   0.25002101  0.12497248  0.70192587
   0.25000008  0.25000000  0.78260472
  -0.00000289  0.37500647  0.70192223
   0.25001503  0.37502098  0.21718881
   0.25000009  0.50000000  0.29816366
   0.00002386  0.62497561  0.21718438
   0.24999721  0.37498990  0.37888016
   0.25000009  0.50000000  0.45963873
  -0.00004349  0.62503979  0.37888123
   0.25000906  0.37499768  0.54037742
   0.25000009  0.50000000  0.62109653
  -0.00000925  0.62500546  0.54038111
   0.24997916  0.37502749  0.70192587
   0.25000008  0.50000000  0.78264437
   0.00000302  0.62499355  0.70192223
   0.24998514  0.62497900  0.21718881
   0.25000009  0.75000000  0.29817474
  -0.00002373  0.87502441  0.21718438
   0.25000297  0.62501008  0.37888016
   0.25000009  0.75000000  0.45962343
   0.00004363  0.87496023  0.37888123
   0.24999112  0.62500230  0.54037742
   0.25000009  0.75000000  0.62113457
   0.00000939  0.87499456  0.54038111
   0.25002101  0.62497248  0.70192587
   0.25000008  0.75000000  0.78260472
  -0.00000289  0.87500647  0.70192223
   0.25001503  0.87502098  0.21718881
   0.24999721  0.87498990  0.37888016
   0.25000906  0.87499768  0.54037742
   0.24997916  0.87502750  0.70192587
   0.75000009 -0.00000000  0.29816366
   0.50002386  0.12497561  0.21718438
   0.75000009 -0.00000000  0.45963873
   0.49995651  0.12503979  0.37888123
   0.75000009 -0.00000000  0.62109653
   0.49999075  0.12500546  0.54038111
   0.75000008  0.00000000  0.78264437
   0.50000302  0.12499355  0.70192223
   0.74998514  0.12497900  0.21718881
   0.75000009  0.25000000  0.29817474
   0.49997627  0.37502440  0.21718438
   0.75000297  0.12501008  0.37888016
   0.75000009  0.25000000  0.45962343
   0.50004363  0.37496023  0.37888123
   0.74999112  0.12500230  0.54037742
   0.75000009  0.25000000  0.62113457
   0.50000939  0.37499456  0.54038111
   0.75002101  0.12497248  0.70192587
   0.75000008  0.25000000  0.78260472
   0.49999711  0.37500647  0.70192223
   0.75001503  0.37502098  0.21718881
   0.75000009  0.50000000  0.29816366
   0.50002386  0.62497561  0.21718438
   0.74999721  0.37498990  0.37888016
   0.75000009  0.50000000  0.45963873
   0.49995651  0.62503979  0.37888123
   0.75000906  0.37499768  0.54037742
   0.75000009  0.50000000  0.62109653
   0.49999075  0.62500546  0.54038111
   0.74997916  0.37502750  0.70192587
   0.75000008  0.50000000  0.78264437
   0.50000302  0.62499355  0.70192223
   0.74998514  0.62497900  0.21718881
   0.75000009  0.75000000  0.29817474
   0.49997627  0.87502440  0.21718438
   0.75000297  0.62501008  0.37888016
   0.75000009  0.75000000  0.45962343
   0.50004363  0.87496023  0.37888123
   0.74999112  0.62500230  0.54037742
   0.75000009  0.75000000  0.62113457
   0.50000939  0.87499456  0.54038111
   0.75002101  0.62497248  0.70192587
   0.75000008  0.75000000  0.78260472
   0.49999711  0.87500647  0.70192223
   0.75001503  0.87502098  0.21718881
   0.74999721  0.87498990  0.37888016
   0.75000906  0.87499768  0.54037742
   0.74997916  0.87502750  0.70192587
   0.25000008 -0.00000000  0.21756831
   0.25000007 -0.00000000  0.37889966
   0.25000007  0.00000000  0.54037188
   0.25000007  0.00000000  0.70204412
   0.25000008  0.25000000  0.21757090
   0.25000007  0.25000000  0.37890034
   0.25000007  0.25000000  0.54037113
   0.25000007  0.25000000  0.70204539
   0.25000007  0.50000000  0.21756831
   0.25000007  0.50000000  0.37889966
   0.25000007  0.50000000  0.54037188
   0.25000007  0.50000000  0.70204412
   0.25000008  0.75000000  0.21757090
   0.25000007  0.75000000  0.37890034
   0.25000007  0.75000000  0.54037113
   0.25000007  0.75000000  0.70204539
   0.75000008 -0.00000000  0.21756831
   0.75000007 -0.00000000  0.37889966
   0.75000007  0.00000000  0.54037188
   0.75000007  0.00000000  0.70204412
   0.75000008  0.25000000  0.21757090
   0.75000007  0.25000000  0.37890034
   0.75000007  0.25000000  0.54037113
   0.75000007  0.25000000  0.70204539
   0.75000008  0.50000000  0.21756831
   0.75000007  0.50000000  0.37889966
   0.75000007  0.50000000  0.54037188
   0.75000007  0.50000000  0.70204412
   0.75000008  0.75000000  0.21757090
   0.75000007  0.75000000  0.37890034
   0.75000007  0.75000000  0.54037113
   0.75000007  0.75000000  0.70204539
   0.00000005 -0.00000000  0.29806151
   0.00000005  0.00000000  0.45962093
   0.00000005  0.00000000  0.62109849
   0.00000004  0.00000000  0.78255835
   0.00000005  0.25000000  0.29805776
   0.00000005  0.25000000  0.45962005
   0.00000005  0.25000000  0.62110440
   0.00000004  0.25000000  0.78255486
   0.00000005  0.50000000  0.29806151
   0.00000005  0.50000000  0.45962093
   0.00000005  0.50000000  0.62109849
   0.00000004  0.50000000  0.78255836
   0.00000005  0.75000000  0.29805776
   0.00000005  0.75000000  0.45962005
   0.00000005  0.75000000  0.62110440
   0.00000004  0.75000001  0.78255486
   0.50000005 -0.00000000  0.29806151
   0.50000005 -0.00000000  0.45962093
   0.50000004  0.00000000  0.62109849
   0.50000004  0.00000000  0.78255835
   0.50000005  0.25000000  0.29805777
   0.50000005  0.25000000  0.45962005
   0.50000005  0.25000000  0.62110440
   0.50000004  0.25000000  0.78255486
   0.50000004  0.50000000  0.29806151
   0.50000005  0.50000000  0.45962093
   0.50000004  0.50000000  0.62109849
   0.50000004  0.50000000  0.78255835
   0.50000005  0.75000000  0.29805777
   0.50000005  0.75000000  0.45962005
   0.50000004  0.75000000  0.62110440
   0.50000004  0.75000000  0.78255486
Direct configuration=     3
   0.25000009 -0.00000000  0.29825148
   0.00008992  0.12490791  0.21662830
   0.25000009 -0.00000000  0.45967297
  -0.00016431  0.12515015  0.37888685
   0.25000009 -0.00000000  0.62102922
  -0.00003507  0.12502055  0.54040193
   0.25000008  0.00000000  0.78272532
   0.00001126  0.12497559  0.70207270
   0.24994368  0.12492077  0.21664499
   0.25000009  0.25000000  0.29829331
  -0.00008970  0.37509207  0.21662830
   0.25001096  0.12503809  0.37888281
   0.25000009  0.25000000  0.45961523
   0.00016453  0.37484983  0.37888685
   0.24996623  0.12500874  0.54038799
   0.25000009  0.25000000  0.62117279
   0.00003529  0.37497942  0.54040193
   0.25007908  0.12489619  0.70208642
   0.25000008  0.25000000  0.78257567
  -0.00001103  0.37502438  0.70207269
   0.25005650  0.37507924  0.21664499
   0.25000009  0.50000000  0.29825148
   0.00008992  0.62490791  0.21662830
   0.24998922  0.37496193  0.37888281
   0.25000009  0.50000000  0.45967297
  -0.00016431  0.62515015  0.37888685
   0.25003394  0.37499129  0.54038799
   0.25000009  0.50000000  0.62102922
  -0.00003507  0.62502055  0.54040193
   0.24992111  0.37510383  0.70208642
   0.25000008  0.50000000  0.78272532
   0.00001126  0.62497560  0.70207270
   0.24994367  0.62492077  0.21664499
   0.25000009  0.75000000  0.29829331
  -0.00008971  0.87509207  0.21662830
   0.25001096  0.62503809  0.37888281
   0.25000009  0.75000000  0.45961523
   0.00016453  0.87484983  0.37888685
   0.24996623  0.62500873  0.54038799
   0.25000009  0.75000000  0.62117279
   0.00003529  0.87497943  0.54040193
   0.25007908  0.62489619  0.70208642
   0.25000008  0.75000000  0.78257567
  -0.00001103  0.87502438  0.70207269
   0.25005650  0.87507924  0.21664499
   0.24998922  0.87496193  0.37888281
   0.25003394  0.87499128  0.54038799
   0.24992110  0.87510383  0.70208642
   0.75000009 -0.00000000  0.29825148
   0.50008992  0.12490791  0.21662830
   0.75000009 -0.00000000  0.45967297
   0.49983570  0.12515014  0.37888685
   0.75000009 -0.00000000  0.62102922
   0.49996493  0.12502055  0.54040193
   0.75000008  0.00000000  0.78272532
   0.50001126  0.12497559  0.70207270
   0.74994368  0.12492077  0.21664499
   0.75000009  0.25000000  0.29829331
   0.49991030  0.37509206  0.21662830
   0.75001096  0.12503809  0.37888281
   0.75000009  0.25000000  0.45961522
   0.50016453  0.37484983  0.37888685
   0.74996623  0.12500873  0.54038799
   0.75000009  0.25000000  0.62117279
   0.50003529  0.37497943  0.54040193
   0.75007908  0.12489619  0.70208642
   0.75000008  0.25000000  0.78257567
   0.49998896  0.37502438  0.70207269
   0.75005650  0.37507925  0.21664499
   0.75000009  0.50000000  0.29825148
   0.50008993  0.62490791  0.21662830
   0.74998922  0.37496193  0.37888281
   0.75000009  0.50000000  0.45967297
   0.49983570  0.62515014  0.37888685
   0.75003394  0.37499129  0.54038800
   0.75000009  0.50000000  0.62102923
   0.49996493  0.62502055  0.54040193
   0.74992111  0.37510383  0.70208642
   0.75000008  0.50000000  0.78272532
   0.50001126  0.62497559  0.70207270
   0.74994367  0.62492077  0.21664499
   0.75000009  0.75000000  0.29829331
   0.49991030  0.87509206  0.21662830
   0.75001096  0.62503809  0.37888281
   0.75000009  0.75000000  0.45961522
   0.50016453  0.87484983  0.37888685
   0.74996623  0.62500873  0.54038799
   0.75000009  0.75000000  0.62117279
   0.50003529  0.87497942  0.54040193
   0.75007907  0.62489619  0.70208642
   0.75000008  0.75000000  0.78257567
   0.49998897  0.87502438  0.70207269
   0.75005650  0.87507925  0.21664499
   0.74998922  0.87496193  0.37888281
   0.75003394  0.87499129  0.54038799
   0.74992110  0.87510383  0.70208642
   0.25000005 -0.00000001  0.21807741
   0.25000004 -0.00000000  0.37895639
   0.25000003  0.00000001  0.54036708
   0.25000002  0.00000001  0.70253278
   0.25000005  0.24999999  0.21808719
   0.25000004  0.25000000  0.37895896
   0.25000003  0.25000001  0.54036425
   0.25000003  0.25000001  0.70253755
   0.25000005  0.49999999  0.21807741
   0.25000004  0.50000000  0.37895639
   0.25000004  0.50000001  0.54036708
   0.25000002  0.50000001  0.70253278
   0.25000005  0.74999999  0.21808719
   0.25000004  0.75000000  0.37895896
   0.25000003  0.75000001  0.54036425
   0.25000002  0.75000001  0.70253755
   0.75000005 -0.00000001  0.21807741
   0.75000004 -0.00000000  0.37895639
   0.75000003  0.00000001  0.54036708
   0.75000002  0.00000001  0.70253278
   0.75000005  0.24999999  0.21808719
   0.75000004  0.25000000  0.37895897
   0.75000003  0.25000001  0.54036425
   0.75000003  0.25000001  0.70253755
   0.75000005  0.49999999  0.21807741
   0.75000004  0.50000000  0.37895639
   0.75000004  0.50000001  0.54036708
   0.75000003  0.50000001  0.70253278
   0.75000005  0.74999999  0.21808719
   0.75000004  0.75000000  0.37895897
   0.75000003  0.75000001  0.54036425
   0.75000003  0.75000001  0.70253755
   0.00000003 -0.00000000  0.29786593
   0.00000003  0.00000000  0.45960578
   0.00000003  0.00000000  0.62103663
   0.00000001  0.00000002  0.78240065
   0.00000004  0.24999999  0.29785179
   0.00000004  0.25000000  0.45960246
   0.00000003  0.25000000  0.62105894
   0.00000003  0.25000001  0.78238748
   0.00000003  0.50000000  0.29786594
   0.00000003  0.50000000  0.45960578
   0.00000004  0.50000000  0.62103663
   0.00000001  0.50000002  0.78240067
   0.00000003  0.74999999  0.29785179
   0.00000003  0.75000000  0.45960246
   0.00000003  0.75000000  0.62105894
  -0.00000000  0.75000002  0.78238749
   0.50000003 -0.00000000  0.29786593
   0.50000004 -0.00000000  0.45960579
   0.50000003  0.00000001  0.62103663
   0.50000002  0.00000002  0.78240065
   0.50000004  0.25000000  0.29785180
   0.50000004  0.25000000  0.45960246
   0.50000003  0.25000000  0.62105894
   0.50000001  0.25000001  0.78238748
   0.50000003  0.50000000  0.29786593
   0.50000004  0.50000000  0.45960578
   0.50000003  0.50000001  0.62103663
   0.50000002  0.50000001  0.78240065
   0.50000003  0.75000000  0.29785180
   0.50000003  0.75000000  0.45960246
   0.50000002  0.75000001  0.62105893
   0.50000002  0.75000001  0.78238748
Direct configuration=     4
   0.25000010 -0.00000001  0.29839622
   0.00000157  0.12495509  0.21642390
   0.25000009 -0.00000000  0.45969635
  -0.00006200  0.12511949  0.37888685
   0.25000009  0.00000000  0.62116037
  -0.00004954  0.12502652  0.54040902
   0.25000008  0.00000000  0.78289947
  -0.00003117  0.12500416  0.70222413
   0.24990947  0.12497935  0.21644392
   0.25000010  0.24999999  0.29837864
  -0.00000135  0.37504489  0.21642390
   0.25003715  0.12499701  0.37888839
   0.25000009  0.25000000  0.45963442
   0.00006221  0.37488049  0.37888685
   0.24995477  0.12501973  0.54039036
   0.25000009  0.25000000  0.62129028
   0.00004975  0.37497347  0.54040902
   0.25006742  0.12489919  0.70224160
   0.25000008  0.25000000  0.78270648
   0.00003138  0.37499582  0.70222413
   0.25009071  0.37502065  0.21644392
   0.25000010  0.49999999  0.29839622
   0.00000157  0.62495509  0.21642390
   0.24996303  0.37500300  0.37888839
   0.25000009  0.50000000  0.45969635
  -0.00006200  0.62511949  0.37888685
   0.25004541  0.37498029  0.54039037
   0.25000009  0.50000000  0.62116037
  -0.00004954  0.62502652  0.54040902
   0.24993277  0.37510082  0.70224160
   0.25000008  0.50000000  0.78289947
  -0.00003117  0.62500417  0.70222413
   0.24990947  0.62497935  0.21644392
   0.25000010  0.74999999  0.29837864
  -0.00000135  0.87504489  0.21642390
   0.25003715  0.62499701  0.37888839
   0.25000009  0.75000000  0.45963442
   0.00006221  0.87488049  0.37888685
   0.24995477  0.62501973  0.54039036
   0.25000009  0.75000000  0.62129028
   0.00004974  0.87497347  0.54040902
   0.25006742  0.62489919  0.70224160
   0.25000008  0.75000000  0.78270648
   0.00003138  0.87499582  0.70222413
   0.25009071  0.87502065  0.21644392
   0.24996303  0.87500300  0.37888839
   0.25004541  0.87498029  0.54039037
   0.24993277  0.87510082  0.70224160
   0.75000010 -0.00000001  0.29839622
   0.50000158  0.12495509  0.21642390
   0.75000009 -0.00000000  0.45969635
   0.49993800  0.12511949  0.37888685
   0.75000009  0.00000000  0.62116037
   0.49995046  0.12502652  0.54040902
   0.75000008  0.00000000  0.78289947
   0.49996883  0.12500416  0.70222413
   0.74990947  0.12497935  0.21644392
   0.75000010  0.24999999  0.29837864
   0.49999865  0.37504488  0.21642390
   0.75003715  0.12499701  0.37888839
   0.75000009  0.25000000  0.45963441
   0.50006221  0.37488049  0.37888685
   0.74995477  0.12501973  0.54039036
   0.75000009  0.25000000  0.62129028
   0.50004975  0.37497347  0.54040902
   0.75006742  0.12489919  0.70224160
   0.75000008  0.25000000  0.78270648
   0.50003137  0.37499582  0.70222413
   0.75009071  0.37502065  0.21644392
   0.75000010  0.49999999  0.29839622
   0.50000158  0.62495508  0.21642390
   0.74996303  0.37500300  0.37888839
   0.75000009  0.50000000  0.45969635
   0.49993801  0.62511949  0.37888685
   0.75004541  0.37498029  0.54039037
   0.75000009  0.50000000  0.62116037
   0.49995046  0.62502652  0.54040902
   0.74993277  0.37510082  0.70224160
   0.75000008  0.50000000  0.78289947
   0.49996882  0.62500416  0.70222413
   0.74990947  0.62497935  0.21644392
   0.75000010  0.74999999  0.29837864
   0.49999865  0.87504488  0.21642390
   0.75003715  0.62499701  0.37888839
   0.75000009  0.75000000  0.45963442
   0.50006221  0.87488049  0.37888685
   0.74995477  0.62501973  0.54039036
   0.75000009  0.75000000  0.62129028
   0.50004975  0.87497347  0.54040902
   0.75006742  0.62489919  0.70224160
   0.75000008  0.75000000  0.78270648
   0.50003138  0.87499582  0.70222413
   0.75009071  0.87502065  0.21644392
   0.74996303  0.87500300  0.37888839
   0.75004541  0.87498029  0.54039037
   0.74993277  0.87510082  0.70224160
   0.25000006 -0.00000001  0.21799746
   0.25000005 -0.00000000  0.37899418
   0.25000005  0.00000001  0.54036663
   0.25000004  0.00000001  0.70253044
   0.25000006  0.24999999  0.21800828
   0.25000006  0.25000000  0.37899612
   0.25000004  0.25000001  0.54037750
   0.25000004  0.25000001  0.70252736
   0.25000006  0.49999999  0.21799746
   0.25000006  0.50000000  0.37899418
   0.25000005  0.50000001  0.54036663
   0.25000004  0.50000001  0.70253044
   0.25000006  0.74999999  0.21800828
   0.25000006  0.75000000  0.37899612
   0.25000004  0.75000001  0.54037750
   0.25000004  0.75000001  0.70252736
   0.75000007 -0.00000001  0.21799745
   0.75000005 -0.00000000  0.37899418
   0.75000005  0.00000001  0.54036663
   0.75000004  0.00000001  0.70253044
   0.75000006  0.24999999  0.21800827
   0.75000006  0.25000000  0.37899612
   0.75000005  0.25000001  0.54037751
   0.75000004  0.25000001  0.70252736
   0.75000006  0.49999999  0.21799745
   0.75000005  0.50000000  0.37899418
   0.75000005  0.50000001  0.54036663
   0.75000004  0.50000001  0.70253044
   0.75000006  0.74999999  0.21800827
   0.75000006  0.75000000  0.37899612
   0.75000005  0.75000001  0.54037751
   0.75000004  0.75000001  0.70252736
   0.00000002 -0.00000000  0.29771843
   0.00000002  0.00000000  0.45960139
   0.00000002  0.00000001  0.62100325
  -0.00000001  0.00000002  0.78230385
   0.00000002  0.24999999  0.29770004
   0.00000002  0.25000000  0.45959495
   0.00000002  0.25000000  0.62103041
   0.00000001  0.25000002  0.78228237
   0.00000002  0.50000000  0.29771843
   0.00000002  0.50000000  0.45960139
   0.00000002  0.50000000  0.62100325
  -0.00000001  0.50000002  0.78230387
   0.00000002  0.74999999  0.29770004
   0.00000002  0.75000000  0.45959495
   0.00000002  0.75000000  0.62103041
  -0.00000003  0.75000003  0.78228237
   0.50000002 -0.00000000  0.29771843
   0.50000003 -0.00000000  0.45960140
   0.50000001  0.00000001  0.62100325
   0.50000000  0.00000002  0.78230385
   0.50000002  0.25000000  0.29770005
   0.50000002  0.25000000  0.45959495
   0.50000002  0.25000000  0.62103041
   0.49999999  0.25000002  0.78228236
   0.50000002  0.50000000  0.29771843
   0.50000003  0.50000000  0.45960140
   0.50000001  0.50000001  0.62100325
   0.49999999  0.50000002  0.78230384
   0.50000002  0.75000000  0.29770005
   0.50000002  0.75000000  0.45959495
   0.50000001  0.75000001  0.62103041
   0.50000000  0.75000002  0.78228236
Direct configuration=     5
   0.25000012 -0.00000002  0.29871160
  -0.00019093  0.12505789  0.21597854
   0.25000010 -0.00000000  0.45974730
   0.00016092  0.12505270  0.37888687
   0.25000009  0.00000000  0.62144612
  -0.00008107  0.12503951  0.54042447
   0.25000008  0.00000001  0.78327890
  -0.00012362  0.12506641  0.70255409
   0.24983494  0.12510699  0.21600580
   0.25000012  0.24999998  0.29856456
   0.00019115  0.37494209  0.21597854
   0.25009422  0.12490750  0.37890056
   0.25000010  0.25000000  0.45967623
  -0.00016072  0.37494729  0.37888687
   0.24992979  0.12504368  0.54039553
   0.25000010  0.25000000  0.62154628
   0.00008124  0.37496050  0.54042447
   0.25004203  0.12490572  0.70257973
   0.25000007  0.25000001  0.78299150
   0.00012379  0.37493359  0.70255408
   0.25016525  0.37489299  0.21600580
   0.25000012  0.49999998  0.29871160
  -0.00019093  0.62505789  0.21597854
   0.24990598  0.37509249  0.37890056
   0.25000010  0.50000000  0.45974730
   0.00016092  0.62505270  0.37888687
   0.25007041  0.37495633  0.54039553
   0.25000009  0.50000000  0.62144612
  -0.00008107  0.62503951  0.54042447
   0.24995818  0.37509427  0.70257972
   0.25000008  0.50000000  0.78327891
  -0.00012363  0.62506642  0.70255409
   0.24983494  0.62510700  0.21600580
   0.25000012  0.74999998  0.29856456
   0.00019115  0.87494209  0.21597853
   0.25009422  0.62490750  0.37890056
   0.25000010  0.75000000  0.45967623
  -0.00016072  0.87494729  0.37888687
   0.24992979  0.62504368  0.54039553
   0.25000010  0.75000000  0.62154628
   0.00008124  0.87496050  0.54042447
   0.25004203  0.62490572  0.70257972
   0.25000007  0.75000001  0.78299150
   0.00012378  0.87493360  0.70255408
   0.25016525  0.87489299  0.21600580
   0.24990598  0.87509249  0.37890056
   0.25007041  0.87495633  0.54039553
   0.24995818  0.87509428  0.70257972
   0.75000012 -0.00000002  0.29871160
   0.49980908  0.12505788  0.21597854
   0.75000010 -0.00000000  0.45974730
   0.50016092  0.12505270  0.37888687
   0.75000009  0.00000000  0.62144612
   0.49991893  0.12503951  0.54042447
   0.75000008  0.00000000  0.78327890
   0.49987637  0.12506641  0.70255409
   0.74983494  0.12510699  0.21600580
   0.75000012  0.24999998  0.29856456
   0.50019115  0.37494209  0.21597854
   0.75009422  0.12490750  0.37890056
   0.75000010  0.25000000  0.45967623
   0.49983928  0.37494729  0.37888687
   0.74992979  0.12504368  0.54039553
   0.75000010  0.25000000  0.62154628
   0.50008125  0.37496050  0.54042447
   0.75004203  0.12490572  0.70257973
   0.75000007  0.25000001  0.78299150
   0.50012378  0.37493360  0.70255408
   0.75016525  0.37489299  0.21600580
   0.75000012  0.49999998  0.29871160
   0.49980907  0.62505788  0.21597854
   0.74990598  0.37509249  0.37890056
   0.75000010  0.50000000  0.45974730
   0.50016092  0.62505270  0.37888687
   0.75007041  0.37495633  0.54039553
   0.75000009  0.50000000  0.62144612
   0.49991893  0.62503951  0.54042447
   0.74995818  0.37509428  0.70257972
   0.75000008  0.50000000  0.78327891
   0.49987637  0.62506641  0.70255408
   0.74983494  0.62510699  0.21600580
   0.75000012  0.74999998  0.29856456
   0.50019116  0.87494209  0.21597854
   0.75009422  0.62490750  0.37890056
   0.75000010  0.75000000  0.45967623
   0.49983928  0.87494729  0.37888687
   0.74992979  0.62504368  0.54039553
   0.75000010  0.75000000  0.62154628
   0.50008124  0.87496050  0.54042447
   0.75004202  0.62490572  0.70257973
   0.75000007  0.75000001  0.78299150
   0.50012378  0.87493360  0.70255408
   0.75016526  0.87489299  0.21600580
   0.74990598  0.87509249  0.37890056
   0.75007040  0.87495633  0.54039553
   0.74995818  0.87509428  0.70257972
   0.25000010 -0.00000001  0.21782325
   0.25000009 -0.00000000  0.37907651
   0.25000008  0.00000001  0.54036565
   0.25000008  0.00000001  0.70252534
   0.25000009  0.24999999  0.21783634
   0.25000009  0.24999999  0.37907708
   0.25000008  0.25000001  0.54040639
   0.25000007  0.25000001  0.70250516
   0.25000010  0.49999998  0.21782325
   0.25000009  0.50000000  0.37907651
   0.25000008  0.50000001  0.54036565
   0.25000008  0.50000001  0.70252534
   0.25000009  0.74999999  0.21783634
   0.25000009  0.75000000  0.37907708
   0.25000008  0.75000001  0.54040639
   0.25000008  0.75000001  0.70250517
   0.75000009 -0.00000001  0.21782325
   0.75000009 -0.00000001  0.37907651
   0.75000008  0.00000001  0.54036565
   0.75000008  0.00000001  0.70252533
   0.75000009  0.24999999  0.21783633
   0.75000009  0.25000000  0.37907708
   0.75000008  0.25000001  0.54040639
   0.75000007  0.25000001  0.70250516
   0.75000010  0.49999999  0.21782325
   0.75000009  0.49999999  0.37907651
   0.75000008  0.50000001  0.54036565
   0.75000008  0.50000001  0.70252534
   0.75000009  0.74999999  0.21783633
   0.75000009  0.75000000  0.37907708
   0.75000008  0.75000001  0.54040640
   0.75000008  0.75000001  0.70250516
  -0.00000000 -0.00000001  0.29739703
  -0.00000001 -0.00000000  0.45959183
  -0.00000002  0.00000001  0.62093052
  -0.00000006  0.00000004  0.78209292
  -0.00000000  0.24999999  0.29736939
  -0.00000000  0.24999999  0.45957858
  -0.00000002  0.25000001  0.62096826
  -0.00000004  0.25000004  0.78205333
  -0.00000000  0.49999999  0.29739704
  -0.00000001  0.50000000  0.45959183
  -0.00000001  0.50000000  0.62093052
  -0.00000006  0.50000004  0.78209295