  20  20   0   0
  0.2571477E+02  0.4457379E-09  0.6303685E-09  0.2588532E-08  0.5000000E-15
  1.000000000000000E-004
  CAR 
 unknown system                          
      8.82786352    -19.99338356  301      1.76740967      1.00000000
    -19.993  0.0000E+00  0.0000E+00
    -19.897  0.0000E+00  0.0000E+00
    -19.801  0.0000E+00  0.0000E+00
    -19.705  0.0000E+00  0.0000E+00
    -19.609  0.0000E+00  0.0000E+00
    -19.513  0.0000E+00  0.0000E+00
    -19.417  0.0000E+00  0.0000E+00
    -19.321  0.0000E+00  0.0000E+00
    -19.225  0.2311E-13  0.2220E-14
    -19.129  0.3858E-09  0.3706E-10
    -19.033  0.1084E-05  0.1042E-06
    -18.937  0.5371E-03  0.5170E-04
    -18.841  0.4995E-01  0.4850E-02
    -18.744  0.9866E+00  0.9963E-01
    -18.648  0.5194E+01  0.5986E+00
    -18.552  0.9039E+01  0.1467E+01
    -18.456  0.4880E+01  0.1936E+01
    -18.360  0.6506E+00  0.1998E+01
    -18.264  0.1787E-01  0.2000E+01
    -18.168  0.9079E-04  0.2000E+01
    -18.072  0.8018E-07  0.2000E+01
    -17.976  0.1189E-10  0.2000E+01
    -17.880  0.0000E+00  0.2000E+01
    -17.784  0.5521E-13  0.2000E+01
    -17.688  0.8453E-09  0.2000E+01
    -17.592  0.2143E-05  0.2000E+01
    -17.496  0.9313E-03  0.2000E+01
    -17.399  0.7459E-01  0.2007E+01
    -17.303  0.1282E+01  0.2130E+01
    -17.207  0.6007E+01  0.2708E+01
    -17.111  0.8978E+01  0.3570E+01
    -17.015  0.4008E+01  0.3955E+01
    -16.919  0.4562E+00  0.3999E+01
    -16.823  0.1149E-01  0.4000E+01
    -16.727  0.5717E-04  0.4000E+01
    -16.631  0.5155E-07  0.4000E+01
    -16.535  0.7976E-11  0.4000E+01
    -16.439  0.0000E+00  0.4000E+01
    -16.343  0.2838E-13  0.4000E+01
    -16.247  0.5075E-09  0.4000E+01
    -16.151  0.1505E-05  0.4000E+01
    -16.054  0.7615E-03  0.4000E+01
    -15.958  0.6995E-01  0.4007E+01
    -15.862  0.1331E+01  0.4135E+01
    -15.766  0.6463E+01  0.4756E+01
    -15.670  0.9146E+01  0.5634E+01
    -15.574  0.3497E+01  0.5970E+01
    -15.478  0.3043E+00  0.5999E+01
    -15.382  0.5235E-02  0.6000E+01
    -15.286  0.5994E-02  0.6001E+01
    -15.190  0.3508E+00  0.6034E+01
    -15.094  0.4116E+01  0.6430E+01
    -14.998  0.1022E+02  0.7412E+01
    -14.902  0.5495E+01  0.7939E+01
    -14.806  0.6173E+00  0.7999E+01
    -14.709  0.1346E-01  0.8000E+01
    -14.613  0.5339E-04  0.8000E+01
    -14.517  0.2007E-03  0.8000E+01
    -14.421  0.2645E-01  0.8003E+01
    -14.325  0.7743E+00  0.8077E+01
    -14.229  0.5521E+01  0.8607E+01
    -14.133  0.9835E+01  0.9552E+01
    -14.037  0.4243E+01  0.9960E+01
    -13.941  0.4103E+00  0.9999E+01
    -13.845  0.8049E-02  0.1000E+02
    -13.749  0.2933E-04  0.1000E+02
    -13.653  0.1867E-07  0.1000E+02
    -13.557  0.1999E-11  0.1000E+02
    -13.461  0.0000E+00  0.1000E+02
    -13.364  0.0000E+00  0.1000E+02
    -13.268  0.0000E+00  0.1000E+02
    -13.172  0.0000E+00  0.1000E+02
    -13.076  0.0000E+00  0.1000E+02
    -12.980  0.0000E+00  0.1000E+02
    -12.884  0.0000E+00  0.1000E+02
    -12.788  0.0000E+00  0.1000E+02
    -12.692  0.0000E+00  0.1000E+02
    -12.596  0.0000E+00  0.1000E+02
    -12.500  0.0000E+00  0.1000E+02
    -12.404  0.0000E+00  0.1000E+02
    -12.308  0.0000E+00  0.1000E+02
    -12.212  0.0000E+00  0.1000E+02
    -12.116  0.0000E+00  0.1000E+02
    -12.020  0.0000E+00  0.1000E+02
    -11.923  0.0000E+00  0.1000E+02
    -11.827  0.0000E+00  0.1000E+02
    -11.731  0.0000E+00  0.1000E+02
    -11.635  0.0000E+00  0.1000E+02
    -11.539  0.0000E+00  0.1000E+02
    -11.443  0.0000E+00  0.1000E+02
    -11.347  0.0000E+00  0.1000E+02
    -11.251  0.0000E+00  0.1000E+02
    -11.155  0.0000E+00  0.1000E+02
    -11.059  0.0000E+00  0.1000E+02
    -10.963  0.0000E+00  0.1000E+02
    -10.867  0.0000E+00  0.1000E+02
    -10.771  0.0000E+00  0.1000E+02
    -10.675  0.0000E+00  0.1000E+02
    -10.578  0.0000E+00  0.1000E+02
    -10.482  0.0000E+00  0.1000E+02
    -10.386  0.0000E+00  0.1000E+02
    -10.290  0.0000E+00  0.1000E+02
    -10.194  0.0000E+00  0.1000E+02
    -10.098  0.0000E+00  0.1000E+02
    -10.002  0.0000E+00  0.1000E+02
     -9.906  0.0000E+00  0.1000E+02
     -9.810  0.0000E+00  0.1000E+02
     -9.714  0.0000E+00  0.1000E+02
     -9.618  0.0000E+00  0.1000E+02
     -9.522  0.0000E+00  0.1000E+02
     -9.426  0.0000E+00  0.1000E+02
     -9.330  0.0000E+00  0.1000E+02
     -9.233  0.0000E+00  0.1000E+02
     -9.137  0.0000E+00  0.1000E+02
     -9.041  0.0000E+00  0.1000E+02
     -8.945  0.0000E+00  0.1000E+02
     -8.849  0.0000E+00  0.1000E+02
     -8.753  0.0000E+00  0.1000E+02
     -8.657  0.0000E+00  0.1000E+02
     -8.561  0.2502E-11  0.1000E+02
     -8.465  0.2491E-07  0.1000E+02
     -8.369  0.4130E-04  0.1000E+02
     -8.273  0.1167E-01  0.1000E+02
     -8.177  0.5842E+00  0.1006E+02
     -8.081  0.5498E+01  0.1059E+02
     -7.985  0.1038E+02  0.1158E+02
     -7.888  0.4032E+01  0.1197E+02
     -7.792  0.3106E+00  0.1200E+02
     -7.696  0.4441E-02  0.1200E+02
     -7.600  0.2432E-02  0.1200E+02
     -7.504  0.1291E+00  0.1201E+02
     -7.408  0.1452E+01  0.1215E+02
     -7.312  0.4999E+01  0.1263E+02
     -7.216  0.7376E+01  0.1334E+02
     -7.120  0.4638E+01  0.1379E+02
     -7.024  0.4290E+01  0.1420E+02
     -6.928  0.4245E+01  0.1461E+02
     -6.832  0.2590E+01  0.1486E+02
     -6.736  0.3203E+01  0.1516E+02
     -6.640  0.1797E+01  0.1534E+02
     -6.543  0.2085E+01  0.1554E+02
     -6.447  0.3453E+01  0.1587E+02
     -6.351  0.1282E+01  0.1599E+02
     -6.255  0.9514E-01  0.1600E+02
     -6.159  0.6884E-01  0.1601E+02
     -6.063  0.8157E+00  0.1608E+02
     -5.967  0.3381E+01  0.1641E+02
     -5.871  0.5680E+01  0.1696E+02
     -5.775  0.5025E+01  0.1744E+02
     -5.679  0.4205E+01  0.1784E+02
     -5.583  0.1547E+01  0.1799E+02
     -5.487  0.1065E+01  0.1809E+02
     -5.391  0.4809E+01  0.1856E+02
     -5.295  0.6372E+01  0.1917E+02
     -5.198  0.4079E+01  0.1956E+02
     -5.102  0.6177E+01  0.2015E+02
     -5.006  0.1025E+02  0.2114E+02
     -4.910  0.7660E+01  0.2187E+02
     -4.814  0.3374E+01  0.2220E+02
     -4.718  0.6498E+01  0.2282E+02
     -4.622  0.5236E+01  0.2332E+02
     -4.526  0.4014E+01  0.2371E+02
     -4.430  0.6412E+01  0.2433E+02
     -4.334  0.7473E+01  0.2504E+02
     -4.238  0.3089E+01  0.2534E+02
     -4.142  0.2443E+01  0.2558E+02
     -4.046  0.3332E+01  0.2590E+02
     -3.950  0.1023E+01  0.2599E+02
     -3.853  0.7023E-01  0.2600E+02
     -3.757  0.2110E+00  0.2602E+02
     -3.661  0.9802E+00  0.2612E+02
     -3.565  0.9287E+00  0.2620E+02
     -3.469  0.1839E+00  0.2622E+02
     -3.373  0.2526E+00  0.2625E+02
     -3.277  0.2692E+01  0.2651E+02
     -3.181  0.8616E+01  0.2733E+02
     -3.085  0.9168E+01  0.2821E+02
     -2.989  0.7267E+01  0.2891E+02
     -2.893  0.8538E+01  0.2973E+02
     -2.797  0.7143E+01  0.3042E+02
     -2.701  0.6308E+01  0.3102E+02
     -2.605  0.3922E+01  0.3140E+02
     -2.508  0.3744E+01  0.3176E+02
     -2.412  0.2179E+01  0.3197E+02
     -2.316  0.3083E+00  0.3200E+02
     -2.220  0.2076E+00  0.3202E+02
     -2.124  0.1519E+01  0.3217E+02
     -2.028  0.2806E+01  0.3244E+02
     -1.932  0.3727E+01  0.3279E+02
     -1.836  0.6971E+01  0.3346E+02
     -1.740  0.5071E+01  0.3395E+02
     -1.644  0.3462E+01  0.3428E+02
     -1.548  0.7841E+01  0.3504E+02
     -1.452  0.7240E+01  0.3573E+02
     -1.356  0.2429E+01  0.3596E+02
     -1.260  0.4623E+00  0.3601E+02
     -1.164  0.1430E+01  0.3615E+02
     -1.067  0.4881E+01  0.3662E+02
     -0.971  0.7794E+01  0.3736E+02
     -0.875  0.1011E+02  0.3834E+02
     -0.779  0.1073E+02  0.3937E+02
     -0.683  0.6997E+01  0.4004E+02
     -0.587  0.7219E+01  0.4073E+02
     -0.491  0.9192E+01  0.4162E+02
     -0.395  0.3671E+01  0.4197E+02
     -0.299  0.3212E+00  0.4200E+02
     -0.203  0.5410E-02  0.4200E+02
     -0.107  0.7355E-03  0.4200E+02
     -0.011  0.5645E-01  0.4201E+02
      0.085  0.8293E+00  0.4209E+02
      0.181  0.2745E+01  0.4235E+02
      0.278  0.3356E+01  0.4267E+02
      0.374  0.2319E+01  0.4289E+02
      0.470  0.2109E+01  0.4310E+02
      0.566  0.4565E+01  0.4354E+02
      0.662  0.6145E+01  0.4413E+02
      0.758  0.6661E+01  0.4477E+02
      0.854  0.5103E+01  0.4526E+02
      0.950  0.3661E+01  0.4561E+02
      1.046  0.8121E+01  0.4639E+02
      1.142  0.7794E+01  0.4714E+02
      1.238  0.2716E+01  0.4740E+02
      1.334  0.5192E+01  0.4790E+02
      1.430  0.1460E+02  0.4930E+02
      1.526  0.3003E+02  0.5218E+02
      1.623  0.4913E+02  0.5690E+02
      1.719  0.5389E+02  0.6208E+02
      1.815  0.3332E+02  0.6528E+02
      1.911  0.1862E+02  0.6707E+02
      2.007  0.1785E+02  0.6878E+02
      2.103  0.1353E+02  0.7008E+02
      2.199  0.9401E+01  0.7099E+02
      2.295  0.9398E+01  0.7189E+02
      2.391  0.1060E+02  0.7291E+02
      2.487  0.1111E+02  0.7398E+02
      2.583  0.7813E+01  0.7473E+02
      2.679  0.4383E+01  0.7515E+02
      2.775  0.5803E+01  0.7571E+02
      2.871  0.5016E+01  0.7619E+02
      2.968  0.4302E+01  0.7660E+02
      3.064  0.8151E+01  0.7738E+02
      3.160  0.7869E+01  0.7814E+02
      3.256  0.5332E+01  0.7865E+02
      3.352  0.4329E+01  0.7907E+02
      3.448  0.3190E+01  0.7937E+02
      3.544  0.4369E+01  0.7979E+02
      3.640  0.3218E+01  0.8010E+02
      3.736  0.1108E+01  0.8021E+02
      3.832  0.2774E+00  0.8024E+02
      3.928  0.1309E+01  0.8036E+02
      4.024  0.2417E+01  0.8059E+02
      4.120  0.2651E+01  0.8085E+02
      4.216  0.6492E+01  0.8147E+02
      4.313  0.9511E+01  0.8239E+02
      4.409  0.7481E+01  0.8311E+02
      4.505  0.3777E+01  0.8347E+02
      4.601  0.6745E+01  0.8412E+02
      4.697  0.8103E+01  0.8489E+02
      4.793  0.7467E+01  0.8561E+02
      4.889  0.8554E+01  0.8643E+02
      4.985  0.1080E+02  0.8747E+02
      5.081  0.1071E+02  0.8850E+02
      5.177  0.7773E+01  0.8925E+02
      5.273  0.5503E+01  0.8978E+02
      5.369  0.5287E+01  0.9028E+02
      5.465  0.9035E+01  0.9115E+02
      5.561  0.8063E+01  0.9193E+02
      5.658  0.8679E+01  0.9276E+02
      5.754  0.7264E+01  0.9346E+02
      5.850  0.4782E+01  0.9392E+02
      5.946  0.5199E+01  0.9442E+02
      6.042  0.2895E+01  0.9470E+02
      6.138  0.3546E+01  0.9504E+02
      6.234  0.4246E+01  0.9544E+02
      6.330  0.1109E+01  0.9555E+02
      6.426  0.5625E-01  0.9556E+02
      6.522  0.5175E-03  0.9556E+02
      6.618  0.8206E-06  0.9556E+02
      6.714  0.2173E-09  0.9556E+02
      6.810  0.9245E-14  0.9556E+02
      6.906  0.0000E+00  0.9556E+02
      7.003  0.7316E-12  0.9556E+02
      7.099  0.7065E-08  0.9556E+02
      7.195  0.1127E-04  0.9556E+02
      7.291  0.3045E-02  0.9556E+02
      7.387  0.1448E+00  0.9557E+02
      7.483  0.1289E+01  0.9569E+02
      7.579  0.2293E+01  0.9591E+02
      7.675  0.8352E+00  0.9599E+02
      7.771  0.5981E-01  0.9600E+02
      7.867  0.7872E-03  0.9600E+02
      7.963  0.1801E-05  0.9600E+02
      8.059  0.6921E-09  0.9600E+02
      8.155  0.4366E-13  0.9600E+02
      8.251  0.0000E+00  0.9600E+02
      8.348  0.0000E+00  0.9600E+02
      8.444  0.0000E+00  0.9600E+02
      8.540  0.0000E+00  0.9600E+02
      8.636  0.0000E+00  0.9600E+02
      8.732  0.0000E+00  0.9600E+02
      8.828  0.0000E+00  0.9600E+02
