   20   20    1    1
  0.2571477E+02  0.4457378E-09  0.6303685E-09  0.2588532E-08  0.5000000E-15
  1.000000000000000E-004
  CAR 
 unknown system                          
     64      4     48
 
  0.0000000E+00  0.0000000E+00  0.0000000E+00  0.1111111E+00
    1      -18.683327   1.000000
    2      -17.201301   1.000000
    3      -15.783292   1.000000
    4      -15.047032   1.000000
    5      -14.247889   1.000000
    6       -8.039629   1.000000
    7       -6.836854   1.000000
    8       -6.505195   1.000000
    9       -6.024270   1.000000
   10       -5.167824   1.000000
   11       -5.050482   1.000000
   12       -4.514431   1.000000
   13       -4.112907   1.000000
   14       -3.664621   1.000000
   15       -2.886137   1.000000
   16       -2.514530   1.000000
   17       -1.972756   1.000000
   18       -1.434576   1.000000
   19       -0.833015   1.000000
   20       -0.775109   1.000000
   21       -0.555173   1.000000
   22        0.444097   1.000000
   23        0.971284   1.000000
   24        1.327200   1.000000
   25        1.387964   1.000000
   26        1.526049   0.999679
   27        1.526575   0.999670
   28        1.575775   0.996637
   29        1.613132   0.985438
   30        1.654421   0.944968
   31        1.685431   0.876843
   32        1.719223   0.752211
   33        1.808942   0.278484
   34        1.873710   0.066380
   35        1.976876   0.001527
   36        2.033975   0.000082
   37        2.358068   0.000000
   38        2.774485   0.000000
   39        3.014901   0.000000
   40        3.107624   0.000000
   41        3.621999   0.000000
   42        4.304610   0.000000
   43        4.341928   0.000000
   44        4.800895   0.000000
   45        4.845234   0.000000
   46        5.098433   0.000000
   47        5.266942   0.000000
   48        5.651534   0.000000
 
  0.3333333E+00  0.0000000E+00  0.0000000E+00  0.2222222E+00
    1      -18.595167   1.000000
    2      -17.123191   1.000000
    3      -15.708278   1.000000
    4      -15.024927   1.000000
    5      -14.199048   1.000000
    6       -8.036634   1.000000
    7       -7.368424   1.000000
    8       -6.763629   1.000000
    9       -5.786294   1.000000
   10       -5.717880   1.000000
   11       -5.000198   1.000000
   12       -4.714132   1.000000
   13       -4.401601   1.000000
   14       -3.181955   1.000000
   15       -2.969922   1.000000
   16       -2.699112   1.000000
   17       -1.880053   1.000000
   18       -1.622981   1.000000
   19       -1.056666   1.000000
   20       -0.832402   1.000000
   21       -0.548969   1.000000
   22        0.270562   1.000000
   23        0.990251   1.000000
   24        1.058960   1.000000
   25        1.453930   0.999995
   26        1.518597   0.999783
   27        1.577408   0.996395
   28        1.612766   0.985628
   29        1.645153   0.958093
   30        1.664755   0.926716
   31        1.680408   0.890725
   32        1.731471   0.694361
   33        1.756346   0.562165
   34        1.904721   0.026076
   35        2.015858   0.000221
   36        2.200380   0.000000
   37        2.397634   0.000000
   38        2.751550   0.000000
   39        2.872871   0.000000
   40        3.451385   0.000000
   41        4.283197   0.000000
   42        4.588663   0.000000
   43        4.890034   0.000000
   44        5.030087   0.000000
   45        5.233315   0.000000
   46        5.400964   0.000000
   47        5.766028   0.000000
   48        7.517807   0.000000
 
  0.0000000E+00  0.3333333E+00  0.2220446E-15  0.2222222E+00
    1      -18.652956   1.000000
    2      -17.244362   1.000000
    3      -15.796298   1.000000
    4      -15.061050   1.000000
    5      -14.204366   1.000000
    6       -8.049477   1.000000
    7       -7.209474   1.000000
    8       -6.508371   1.000000
    9       -5.411516   1.000000
   10       -5.167149   1.000000
   11       -5.055455   1.000000
   12       -4.535178   1.000000
   13       -4.119160   1.000000
   14       -3.252716   1.000000
   15       -3.106717   1.000000
   16       -2.545186   1.000000
   17       -2.099639   1.000000
   18       -1.566819   1.000000
   19       -1.117533   1.000000
   20       -0.753651   1.000000
   21       -0.635328   1.000000
   22        0.148225   1.000000
   23        0.688951   1.000000
   24        1.332500   1.000000
   25        1.465661   0.999990
   26        1.499958   0.999922
   27        1.538617   0.999393
   28        1.606222   0.988682
   29        1.618034   0.982678
   30        1.659583   0.936358
   31        1.675682   0.902724
   32        1.726237   0.719807
   33        1.812038   0.263976
   34        1.943924   0.006275
   35        2.048713   0.000035
   36        2.418801   0.000000
   37        2.471440   0.000000
   38        2.696016   0.000000
   39        3.067897   0.000000
   40        3.532429   0.000000
   41        3.962417   0.000000
   42        4.286068   0.000000
   43        4.376767   0.000000
   44        5.020899   0.000000
   45        5.046422   0.000000
   46        5.145807   0.000000
   47        5.442915   0.000000
   48        5.653323   0.000000
 
  0.3333333E+00  0.3333333E+00  0.0000000E+00  0.4444444E+00
    1      -18.567167   1.000000
    2      -17.164229   1.000000
    3      -15.722085   1.000000
    4      -15.028078   1.000000
    5      -14.165209   1.000000
    6       -8.041439   1.000000
    7       -7.271034   1.000000
    8       -7.019354   1.000000
    9       -5.921668   1.000000
   10       -5.356707   1.000000
   11       -5.005152   1.000000
   12       -4.751693   1.000000
   13       -4.383949   1.000000
   14       -3.180859   1.000000
   15       -2.958973   1.000000
   16       -2.791148   1.000000
   17       -1.842240   1.000000
   18       -1.533647   1.000000
   19       -0.972428   1.000000
   20       -0.869936   1.000000
   21       -0.533693   1.000000
   22        0.571943   1.000000
   23        0.767308   1.000000
   24        1.070417   1.000000
   25        1.413574   1.000000
   26        1.510457   0.999860
   27        1.564056   0.997985
   28        1.596746   0.992101
   29        1.624502   0.978361
   30        1.666316   0.923596
   31        1.678237   0.896362
   32        1.710064   0.791314
   33        1.767301   0.500615
   34        1.907187   0.024035
   35        2.010637   0.000291
   36        2.184408   0.000000
   37        2.317735   0.000000
   38        2.518270   0.000000
   39        3.052525   0.000000
   40        3.257372   0.000000
   41        4.179882   0.000000
   42        4.589948   0.000000
   43        4.728132   0.000000
   44        4.923580   0.000000
   45        5.454840   0.000000
   46        5.624244   0.000000
   47        5.904513   0.000000
   48        6.152944   0.000000
