 vasp.6.2.1 16May21 (build Dec 23 2021 00:35:04) complex                        
  
 executed on             LinuxIFC date 2023.03.08  11:53:00
 running on  128 total cores
 distrk:  each k-point on  128 cores,    1 groups
 distr:  one band on NCORE=  16 cores,    8 groups


--------------------------------------------------------------------------------------------------------


 INCAR:
   ENCUT = 400.000000
   KSPACING = 0.500000
   SIGMA = 0.100000
   EDIFF = 1.00e-08
   EDIFFG = -1.00e-02
   ALGO = Fast
   GGA = PE
   PREC = Normal
   IBRION = -1
   IDIPOL = 3
   ISIF = 3
   ISMEAR = 0
   ISPIN = 0
   LMAXMIX = 6
   NELM = 150
   NPAR = 8
   NSW = 0
   NWRITE = 1
   DIPOL = 0.2573 0.7427 0.5102
   KGAMMA = .TRUE.
   LASPH = .TRUE.
   LCHARG = .FALSE.
   LDIPOL = .TRUE.
   LWAVE = .FALSE.
   LREAL = AUTO

 POTCAR:    PAW_PBE Na 08Apr2002                  
 POTCAR:    PAW_PBE O 08Apr2002                   
 POTCAR:    PAW_PBE Cl 06Sep2000                  
 POTCAR:    PAW_PBE Na 08Apr2002                  
  local pseudopotential read in
  partial core-charges read in
  partial kinetic energy density read in
  atomic valenz-charges read in
  non local Contribution for L=           0  read in
    real space projection operators read in
  non local Contribution for L=           0  read in
    real space projection operators read in
  non local Contribution for L=           1  read in
    real space projection operators read in
    PAW grid and wavefunctions read in
 
   number of l-projection  operators is LMAX  =           3
   number of lm-projection operators is LMMAX =           5
 
 POTCAR:    PAW_PBE O 08Apr2002                   
  local pseudopotential read in
  partial core-charges read in
  partial kinetic energy density read in
  kinetic energy density of atom read in
  atomic valenz-charges read in
  non local Contribution for L=           0  read in
    real space projection operators read in
  non local Contribution for L=           0  read in
    real space projection operators read in
  non local Contribution for L=           1  read in
    real space projection operators read in
  non local Contribution for L=           1  read in
    real space projection operators read in
    PAW grid and wavefunctions read in
 
   number of l-projection  operators is LMAX  =           4
   number of lm-projection operators is LMMAX =           8
 
 POTCAR:    PAW_PBE Cl 06Sep2000                  
  local pseudopotential read in
  partial core-charges read in
  partial kinetic energy density read in
  atomic valenz-charges read in
  non local Contribution for L=           0  read in
    real space projection operators read in
  non local Contribution for L=           0  read in
    real space projection operators read in
  non local Contribution for L=           1  read in
    real space projection operators read in
  non local Contribution for L=           1  read in
    real space projection operators read in
    PAW grid and wavefunctions read in
 
   number of l-projection  operators is LMAX  =           4
   number of lm-projection operators is LMMAX =           8
 
 Optimization of the real space projectors (new method)

 maximal supplied QI-value         = 17.01
 optimisation between [QCUT,QGAM] = [ 10.20, 20.41] = [ 29.16,116.64] Ry 
 Optimized for a Real-space Cutoff    1.19 Angstroem

   l    n(q)    QCUT    max X(q) W(low)/X(q) W(high)/X(q)  e(spline) 
   0      7    10.205    45.123    0.22E-03    0.82E-03    0.11E-06
   0      7    10.205    12.364    0.17E-03    0.61E-03    0.75E-07
   1      7    10.205     8.302    0.37E-03    0.15E-03    0.27E-07
 Optimization of the real space projectors (new method)

 maximal supplied QI-value         = 24.76
 optimisation between [QCUT,QGAM] = [ 10.15, 20.30] = [ 28.85,115.39] Ry 
 Optimized for a Real-space Cutoff    1.38 Angstroem

   l    n(q)    QCUT    max X(q) W(low)/X(q) W(high)/X(q)  e(spline) 
   0      8    10.150    20.381    0.22E-03    0.32E-03    0.29E-06
   0      8    10.150    15.268    0.23E-03    0.35E-03    0.30E-06
   1      8    10.150     5.964    0.46E-03    0.53E-03    0.21E-06
   1      8    10.150     5.382    0.38E-03    0.45E-03    0.19E-06
 Optimization of the real space projectors (new method)

 maximal supplied QI-value         = 19.84
 optimisation between [QCUT,QGAM] = [ 10.12, 20.44] = [ 28.68,116.96] Ry 
 Optimized for a Real-space Cutoff    1.23 Angstroem

   l    n(q)    QCUT    max X(q) W(low)/X(q) W(high)/X(q)  e(spline) 
   0      7    10.119   168.010    0.54E-04    0.25E-03    0.48E-07
   0      7    10.119   164.674    0.53E-04    0.25E-03    0.47E-07
   1      7    10.119    69.222    0.45E-03    0.63E-03    0.13E-06
   1      7    10.119    56.786    0.45E-03    0.62E-03    0.13E-06
  PAW_PBE Na 08Apr2002                  :
 energy of atom  1       EATOM=   -5.1581
 kinetic energy error for atom=    0.0001 (will be added to EATOM!!)
  PAW_PBE O 08Apr2002                   :
 energy of atom  2       EATOM= -432.3788
 kinetic energy error for atom=    0.1156 (will be added to EATOM!!)
  PAW_PBE Cl 06Sep2000                  :
 energy of atom  3       EATOM= -409.7259
 kinetic energy error for atom=    0.0089 (will be added to EATOM!!)
 
 
 POSCAR: Na  O Cl
  positions in cartesian coordinates
  No initial velocities read in
 exchange correlation table for  LEXCH =        8
   RHO(1)=    0.500       N(1)  =     2000
   RHO(2)=  100.500       N(2)  =     4000
 


--------------------------------------------------------------------------------------------------------


 ion  position               nearest neighbor table
   1  0.500  0.500  0.328-   6 2.23   4 2.23  13 2.23   3 3.15  17 3.15  17 3.15   2 3.15   3 3.15
                             2 3.15   9 3.15
   2  0.000  0.500  0.414-   4 2.23  13 2.23  18 2.23   5 2.23   4 2.23  13 2.23   9 3.15  19 3.15
                             7 3.15  17 3.15   3 3.15  17 3.15   9 3.15   1 3.15   7 3.15   3 3.15
   3  0.500  1.000  0.328-   4 2.23  13 2.23   6 2.23   1 3.15  17 3.15   2 3.15  17 3.15   1 3.15
                             2 3.15   7 3.15   5 3.86   5 3.86
   4  0.500  0.500  0.414-  13 0.00   2 2.23   9 2.23   7 2.23  14 2.23   3 2.23   2 2.23   1 2.23
                            18 3.15   6 3.15   5 3.15  18 3.15   5 3.15   6 3.15  12 3.15
   5  0.000  0.500  0.500-   7 2.23  14 2.23  19 2.23   2 2.23   8 2.23  14 2.23   7 2.23  17 2.23
                            12 3.15  10 3.15   4 3.15  18 3.15   6 3.15  18 3.15  20 3.15  12 3.15
   6  0.500  1.000  0.414-   1 2.23  17 2.23   9 2.23   7 2.23  14 2.23  17 2.23   3 2.23  18 3.15
                             4 3.15  18 3.15   5 3.15  10 3.15   4 3.15   5 3.15   2 3.86   2 3.86
   7  0.500  0.500  0.500-  14 0.00   5 2.23  12 2.23   4 2.23  13 2.23  10 2.23  15 2.23   6 2.23
                             5 2.23  19 3.15   9 3.15   2 3.15   8 3.15  19 3.15  17 3.15   8 3.15
   8  0.000  0.500  0.586-  10 2.23  15 2.23  20 2.23   5 2.23  10 2.23  15 2.23  18 2.23  11 2.23
                             7 3.15  19 3.15   9 3.15  19 3.15   7 3.15   9 3.15  17 3.15  12 3.86
   9  0.500  1.000  0.500-   4 2.23  13 2.23  18 2.23   6 2.23  12 2.23  10 2.23  15 2.23  18 2.23
                            19 3.15   7 3.15   2 3.15  19 3.15   8 3.15   2 3.15   7 3.15   8 3.15
  10  0.500  0.500  0.586-  15 0.00   8 2.23  14 2.23   7 2.23   9 2.23   8 2.23  16 2.23  12 3.15
                            20 3.15   5 3.15  20 3.15  18 3.15  11 3.15   6 3.15   5 3.15  12 3.15
  11  0.000  0.500  0.672-  16 2.23  16 2.23  19 2.23   8 2.23  20 3.15  12 3.15  20 3.15  10 3.15
                            12 3.15  10 3.15  18 3.15   9 3.86   9 3.86
  12  0.500  1.000  0.586-   7 2.23  14 2.23  19 2.23   9 2.23  16 2.23  19 2.23  10 3.15   5 3.15
                            20 3.15  11 3.15   5 3.15  20 3.15  10 3.15  11 3.15   4 3.15  18 3.15
  13  0.500  0.500  0.414-   4 0.00   2 2.23   9 2.23   7 2.23   3 2.23   2 2.23   1 2.23
  14  0.500  0.500  0.500-   7 0.00   5 2.23  12 2.23  10 2.23   4 2.23   6 2.23   5 2.23
  15  0.500  0.500  0.586-  10 0.00   8 2.23   7 2.23   9 2.23   8 2.23
  16  0.500  0.500  0.672-  11 2.23  12 2.23  11 2.23  10 2.23
  17  0.000  1.000  0.414-   6 2.23  18 2.23   6 2.23   5 2.23   1 3.15   3 3.15   2 3.15   1 3.15
                             2 3.15   7 3.15   3 3.15   7 3.15   9 3.15   8 3.15   9 3.15
  18  0.000  1.000  0.500-   2 2.23   9 2.23  17 2.23  19 2.23   9 2.23   8 2.23   6 3.15   4 3.15
                             6 3.15   5 3.15   4 3.15   5 3.15  10 3.15  10 3.15  12 3.15  12 3.15
  19  0.000  1.000  0.586-   5 2.23  12 2.23  18 2.23  12 2.23  11 2.23  20 2.23   9 3.15   7 3.15
                             2 3.15   9 3.15   8 3.15   7 3.15   8 3.15
  20  0.000  1.000  0.672-   8 2.23  19 2.23  10 3.15  12 3.15  11 3.15  10 3.15  11 3.15   5 3.15
                            12 3.15
 
 -----------------------------------------------------------------------------
|                                                                             |
|           W    W    AA    RRRRR   N    N  II  N    N   GGGG   !!!           |
|           W    W   A  A   R    R  NN   N  II  NN   N  G    G  !!!           |
|           W    W  A    A  R    R  N N  N  II  N N  N  G       !!!           |
|           W WW W  AAAAAA  RRRRR   N  N N  II  N  N N  G  GGG   !            |
|           WW  WW  A    A  R   R   N   NN  II  N   NN  G    G                |
|           W    W  A    A  R    R  N    N  II  N    N   GGGG   !!!           |
|                                                                             |
|     The distance between some ions is very small. Please check the          |
|     nearest-neighbor list in the OUTCAR file.                               |
|     I HOPE YOU KNOW WHAT YOU ARE DOING!                                     |
|                                                                             |
 -----------------------------------------------------------------------------

  LATTYP: Found a simple monoclinic cell.
 ALAT       =     6.3036850495
 B/A-ratio  =     0.7071067812
 C/A-ratio  =     2.9052467252
 COS(beta)  =    -0.0331646341
  
  Lattice vectors:
  
 A1 = (   4.4573784450,  -4.4573784450,   0.0000000000)
 A2 = (   3.1518425248,   3.1518425248,   0.0000000000)
 A3 = (  -0.4294748522,   0.4294748522,  18.3036859879)


Analysis of symmetry for initial positions (statically):
=====================================================================
 Subroutine PRICEL returns:
 Original cell was already a primitive cell.
 

 Routine SETGRP: Setting up the symmetry group for a 
 simple monoclinic supercell.


 Subroutine GETGRP returns: Found  2 space group operations
 (whereof  2 operations were pure point group operations)
 out of a pool of  4 trial point group operations.


The static configuration has the point symmetry C_1h.


Analysis of symmetry for dynamics (positions and initial velocities):
=====================================================================
 Subroutine PRICEL returns:
 Original cell was already a primitive cell.
 

 Routine SETGRP: Setting up the symmetry group for a 
 simple monoclinic supercell.


 Subroutine GETGRP returns: Found  2 space group operations
 (whereof  2 operations were pure point group operations)
 out of a pool of  4 trial point group operations.


The dynamic configuration has the point symmetry C_1h.


 Subroutine INISYM returns: Found  2 space group operations
 (whereof  2 operations are pure point group operations),
 and found     1 'primitive' translations


----------------------------------------------------------------------------------------

                                     Primitive cell                                     

  volume of cell :     514.2953

  direct lattice vectors                    reciprocal lattice vectors
    -3.151842525 -3.151842525  0.000000000    -0.158637367 -0.158637367  0.000000000
     4.457378445 -4.457378445  0.000000000     0.112173558 -0.112173558 -0.158637367
    12.942660483-12.942660483 18.303685988     0.000000000  0.000000000  0.054633804

  length of vectors
     4.457378445  6.303685050 25.885320966     0.224347116  0.224347116  0.054633804

  position of ions in fractional coordinates (direct lattice)
     0.500000174  0.499999826  0.327802826
     0.000000100  0.499999826  0.413901413
     0.500000174  0.999999900  0.327802826
     0.500000174  0.499999826  0.413901413
     0.000000100  0.499999826  0.500000000
     0.500000174  0.999999900  0.413901413
     0.500000174  0.499999826  0.500000000
     0.000000100  0.499999826  0.586098587
     0.500000174  0.999999900  0.500000000
     0.500000174  0.499999826  0.586098587
     0.000000100  0.499999826  0.672197174
     0.500000174  0.999999900  0.586098587
     0.500000174  0.499999826  0.413901413
     0.500000174  0.499999826  0.500000000
     0.500000174  0.499999826  0.586098587
     0.500000174  0.499999826  0.672197174
     0.000000100  0.999999900  0.413901388
     0.000000100  0.999999900  0.499999974
     0.000000100  0.999999900  0.586098561
     0.000000100  0.999999900  0.672197148

  ion indices of the primitive-cell ions
   primitive index   ion index
                 1           1
                 2           2
                 3           3
                 4           4
                 5           5
                 6           6
                 7           7
                 8           8
                 9           9
                10          10
                11          11
                12          12
                13          13
                14          14
                15          15
                16          16
                17          17
                18          18
                19          19
                20          20

----------------------------------------------------------------------------------------

 
 -----------------------------------------------------------------------------
|                                                                             |
|           W    W    AA    RRRRR   N    N  II  N    N   GGGG   !!!           |
|           W    W   A  A   R    R  NN   N  II  NN   N  G    G  !!!           |
|           W    W  A    A  R    R  N N  N  II  N N  N  G       !!!           |
|           W WW W  AAAAAA  RRRRR   N  N N  II  N  N N  G  GGG   !            |
|           WW  WW  A    A  R   R   N   NN  II  N   NN  G    G                |
|           W    W  A    A  R    R  N    N  II  N    N   GGGG   !!!           |
|                                                                             |
|     The requested file  could not be found or opened for reading            |
|     k-point information. Automatic k-point generation is used as a          |
|     fallback, which may lead to unwanted results.                           |
|                                                                             |
 -----------------------------------------------------------------------------

 

Automatic generation of k-mesh.
 Grid dimensions derived from KSPACING:
 generate k-points for:    3    3    1

 Generating k-lattice:

  Cartesian coordinates                     Fractional coordinates (reciprocal lattice)
    -0.052879122 -0.052879122  0.000000000     0.333333333  0.000000000  0.000000000
     0.037391186 -0.037391186 -0.052879122     0.000000000  0.333333333 -0.000000000
     0.000000000  0.000000000  0.054633804     0.000000000  0.000000000  1.000000000

  Length of vectors
     0.074782372  0.074782372  0.054633804

  Shift w.r.t. Gamma in fractional coordinates (k-lattice)
     0.000000000  0.000000000  0.000000000

 
 Subroutine IBZKPT returns following result:
 ===========================================
 
 Found      4 irreducible k-points:
 
 Following reciprocal coordinates:
            Coordinates               Weight
  0.000000  0.000000  0.000000      1.000000
  0.333333  0.000000  0.000000      2.000000
  0.000000  0.333333  0.000000      2.000000
  0.333333  0.333333  0.000000      4.000000
 
 Following cartesian coordinates:
            Coordinates               Weight
  0.000000  0.000000  0.000000      1.000000
 -0.052879 -0.052879  0.000000      2.000000
  0.037391 -0.037391 -0.052879      2.000000
 -0.015488 -0.090270 -0.052879      4.000000
 


--------------------------------------------------------------------------------------------------------




 Dimension of arrays:
   k-points           NKPTS =      4   k-points in BZ     NKDIM =      4   number of bands    NBANDS=     48
   number of dos      NEDOS =    301   number of ions     NIONS =     20
   non local maximal  LDIM  =      4   non local SUM 2l+1 LMDIM =      8
   total plane-waves  NPLWV =  98304
   max r-space proj   IRMAX =   2156   max aug-charges    IRDMAX=   9504
   dimension x,y,z NGX =    24 NGY =   32 NGZ =  128
   dimension x,y,z NGXF=    48 NGYF=   64 NGZF=  256
   support grid    NGXF=    48 NGYF=   64 NGZF=  256
   ions per type =              12   4   4
   NGX,Y,Z   is equivalent  to a cutoff of   8.95,  8.44,  8.22 a.u.
   NGXF,Y,Z  is equivalent  to a cutoff of  17.90, 16.88, 16.44 a.u.

 SYSTEM =  unknown system                          
 POSCAR =  Na  O Cl                                

 Startparameter for this run:
   NWRITE =      1    write-flag & timer
   PREC   = normal    normal or accurate (medium, high low for compatibility)
   ISTART =      0    job   : 0-new  1-cont  2-samecut
   ICHARG =      2    charge: 1-file 2-atom 10-const
   ISPIN  =      1    spin polarized calculation?
   LNONCOLLINEAR =      F non collinear calculations
   LSORBIT =      F    spin-orbit coupling
   INIWAV =      1    electr: 0-lowe 1-rand  2-diag
   LASPH  =      T    aspherical Exc in radial PAW
 Electronic Relaxation 1
   ENCUT  =  400.0 eV  29.40 Ry    5.42 a.u.   7.27 10.28 42.21*2*pi/ulx,y,z
   ENINI  =  400.0     initial cutoff
   ENAUG  =  605.4 eV  augmentation charge cutoff
   NELM   =    150;   NELMIN=  2; NELMDL= -5     # of ELM steps 
   EDIFF  = 0.1E-07   stopping-criterion for ELM
   LREAL  =      T    real-space projection
   NLSPLINE    = F    spline interpolate recip. space projectors
   LCOMPAT=      F    compatible to vasp.4.4
   GGA_COMPAT  = T    GGA compatible to vasp.4.4-vasp.4.6
   LMAXPAW     = -100 max onsite density
   LMAXMIX     =    6 max onsite mixed and CHGCAR
   VOSKOWN=      0    Vosko Wilk Nusair interpolation
   ROPT   =   -0.00050  -0.00050  -0.00050
 Ionic relaxation
   EDIFFG = -.1E-01   stopping-criterion for IOM
   NSW    =      0    number of steps for IOM
   NBLOCK =      1;   KBLOCK =      1    inner block; outer block 
   IBRION =     -1    ionic relax: 0-MD 1-quasi-New 2-CG
   NFREE  =      0    steps in history (QN), initial steepest desc. (CG)
   ISIF   =      3    stress and relaxation
   IWAVPR =     10    prediction:  0-non 1-charg 2-wave 3-comb
   ISYM   =      2    0-nonsym 1-usesym 2-fastsym
   LCORR  =      T    Harris-Foulkes like correction to forces

   POTIM  = 0.5000    time-step for ionic-motion
   TEIN   =    0.0    initial temperature
   TEBEG  =    0.0;   TEEND  =   0.0 temperature during run
   SMASS  =  -3.00    Nose mass-parameter (am)
   estimated Nose-frequenzy (Omega)   =  0.10E-29 period in steps = 0.13E+47 mass=  -0.454E-27a.u.
   SCALEE = 1.0000    scale energy and forces
   NPACO  =    256;   APACO  = 16.0  distance and # of slots for P.C.
   PSTRESS=    0.0 pullay stress

  Mass of Ions in am
   POMASS =  22.99 16.00 35.45
  Ionic Valenz
   ZVAL   =   1.00  6.00  7.00
  Atomic Wigner-Seitz radii
   RWIGS  =  -1.00 -1.00 -1.00
  virtual crystal weights 
   VCA    =   1.00  1.00  1.00
   NELECT =      64.0000    total number of electrons
   NUPDOWN=      -1.0000    fix difference up-down

 DOS related values:
   EMIN   =  10.00;   EMAX   =-10.00  energy-range for DOS
   EFERMI =   0.00
   ISMEAR =     0;   SIGMA  =   0.10  broadening in eV -4-tet -1-fermi 0-gaus

 Electronic relaxation 2 (details)
   IALGO  =     68    algorithm
   LDIAG  =      T    sub-space diagonalisation (order eigenvalues)
   LSUBROT=      F    optimize rotation matrix (better conditioning)
   TURBO    =      0    0=normal 1=particle mesh
   IRESTART =      0    0=no restart 2=restart with 2 vectors
   NREBOOT  =      0    no. of reboots
   NMIN     =      0    reboot dimension
   EREF     =   0.00    reference energy to select bands
   IMIX   =      4    mixing-type and parameters
     AMIX     =   0.40;   BMIX     =  1.00
     AMIX_MAG =   1.60;   BMIX_MAG =  1.00
     AMIN     =   0.10
     WC   =   100.;   INIMIX=   1;  MIXPRE=   1;  MAXMIX= -45

 Intra band minimization:
   WEIMIN = 0.0000     energy-eigenvalue tresh-hold
   EBREAK =  0.52E-10  absolut break condition
   DEPER  =   0.30     relativ break condition  

   TIME   =   0.40     timestep for ELM

  volume/ion in A,a.u.               =      25.71       173.53
  Fermi-wavevector in a.u.,A,eV,Ry     =   0.817330  1.544529  9.089071  0.668028
  Thomas-Fermi vector in A             =   1.927758
 
 Write flags
   LWAVE        =      F    write WAVECAR
   LDOWNSAMPLE  =      F    k-point downsampling of WAVECAR
   LCHARG       =      F    write CHGCAR
   LVTOT        =      F    write LOCPOT, total local potential
   LVHAR        =      F    write LOCPOT, Hartree potential only
   LELF         =      F    write electronic localiz. function (ELF)
   LORBIT       =      0    0 simple, 1 ext, 2 COOP (PROOUT), +10 PAW based schemes


 Dipole corrections
   LMONO  =      F    monopole corrections only (constant potential shift)
   LDIPOL =      T    correct potential (dipole corrections)
   IDIPOL =      3    1-x, 2-y, 3-z, 4-all directions 
   EPSILON=  1.0000000 bulk dielectric constant

 Exchange correlation treatment:
   GGA     =    PE    GGA type
   LEXCH   =     8    internal setting for exchange type
   VOSKOWN=      0    Vosko Wilk Nusair interpolation
   LHFCALC =     F    Hartree Fock is set to
   LHFONE  =     F    Hartree Fock one center treatment
   AEXX    =    0.0000 exact exchange contribution

 Linear response parameters
   LEPSILON=     F    determine dielectric tensor
   LRPA    =     F    only Hartree local field effects (RPA)
   LNABLA  =     F    use nabla operator in PAW spheres
   LVEL    =     F    velocity operator in full k-point grid
   LINTERFAST=   F  fast interpolation
   KINTER  =     0    interpolate to denser k-point grid
   CSHIFT  =0.1000    complex shift for real part using Kramers Kronig
   OMEGAMAX=  -1.0    maximum frequency
   DEG_THRESHOLD= 0.2000000E-02 threshold for treating states as degnerate
   RTIME   =   -0.100 relaxation time in fs
  (WPLASMAI=    0.000 imaginary part of plasma frequency in eV, 0.658/RTIME)
   DFIELD  = 0.0000000 0.0000000 0.0000000 field for delta impulse in time
 
 Orbital magnetization related:
   ORBITALMAG=     F  switch on orbital magnetization
   LCHIMAG   =     F  perturbation theory with respect to B field
   DQ        =  0.001000  dq finite difference perturbation B field
   LLRAUG    =     F  two centre corrections for induced B field



--------------------------------------------------------------------------------------------------------


 Static calculation
 charge density and potential will be updated during run
 non-spin polarized calculation
 RMM-DIIS sequential band-by-band and
  variant of blocked Davidson during initial phase
 perform sub-space diagonalisation
    before iterative eigenvector-optimisation
 modified Broyden-mixing scheme, WC =      100.0
 initial mixing is a Kerker type mixing with AMIX =  0.4000 and BMIX =      1.0000
 Hartree-type preconditioning will be used
 using additional bands           16
 real space projection scheme for non local part
 use partial core corrections
 calculate Harris-corrections to forces 
   (improved forces if not selfconsistent)
 use gradient corrections 
 use of overlap-Matrix (Vanderbilt PP)
 Gauss-broadening in eV      SIGMA  =   0.10


--------------------------------------------------------------------------------------------------------


  energy-cutoff  :      400.00
  volume of cell :      514.30
      direct lattice vectors                 reciprocal lattice vectors
    -3.151842525 -3.151842525  0.000000000    -0.158637367 -0.158637367  0.000000000
     4.457378445 -4.457378445  0.000000000     0.112173558 -0.112173558 -0.158637367
    12.942660483-12.942660483 18.303685988     0.000000000  0.000000000  0.054633804

  length of vectors
     4.457378445  6.303685050 25.885320966     0.224347116  0.224347116  0.054633804


 
 k-points in units of 2pi/SCALE and weight: read from INCAR                         
   0.00000000  0.00000000  0.00000000       0.111
  -0.05287912 -0.05287912  0.00000000       0.222
   0.03739119 -0.03739119 -0.05287912       0.222
  -0.01548794 -0.09027031 -0.05287912       0.444
 
 k-points in reciprocal lattice and weights: read from INCAR                         
   0.00000000  0.00000000  0.00000000       0.111
   0.33333333  0.00000000  0.00000000       0.222
   0.00000000  0.33333333  0.00000000       0.222
   0.33333333  0.33333333  0.00000000       0.444
 
 position of ions in fractional coordinates (direct lattice) 
   0.50000017  0.49999983  0.32780283
   0.00000010  0.49999983  0.41390141
   0.50000017  0.99999990  0.32780283
   0.50000017  0.49999983  0.41390141
   0.00000010  0.49999983  0.50000000
   0.50000017  0.99999990  0.41390141
   0.50000017  0.49999983  0.50000000
   0.00000010  0.49999983  0.58609859
   0.50000017  0.99999990  0.50000000
   0.50000017  0.49999983  0.58609859
   0.00000010  0.49999983  0.67219717
   0.50000017  0.99999990  0.58609859
   0.50000017  0.49999983  0.41390141
   0.50000017  0.49999983  0.50000000
   0.50000017  0.49999983  0.58609859
   0.50000017  0.49999983  0.67219717
   0.00000010  0.99999990  0.41390139
   0.00000010  0.99999990  0.49999997
   0.00000010  0.99999990  0.58609856
   0.00000010  0.99999990  0.67219715
 
 position of ions in cartesian coordinates  (Angst):
   4.89540732 -8.04725094  6.00000000
   7.58567359 -7.58567422  7.57592150
   7.12409687-10.27594050  6.00000000
   6.00975210 -9.16159572  7.57592150
   8.70001837 -8.70001900  9.15184299
   8.23844165-11.39028528  7.57592150
   7.12409687-10.27594050  9.15184299
   9.81436315 -9.81436378 10.72776449
   9.35278643-12.50463005  9.15184299
   8.23844165-11.39028528 10.72776449
  10.92870793-10.92870856 12.30368599
  10.46713121-13.61897483 10.72776449
   6.00975210 -9.16159572  7.57592150
   7.12409687-10.27594050  9.15184299
   8.23844165-11.39028528 10.72776449
   9.35278643-12.50463005 12.30368599
   9.81436282 -9.81436345  7.57592103
  10.92870759-10.92870822  9.15184252
  12.04305237-12.04305300 10.72776402
  13.15739715-13.15739778 12.30368552
 


--------------------------------------------------------------------------------------------------------


 k-point   1 :   0.0000 0.0000 0.0000  plane waves:    9355
 k-point   2 :   0.3333 0.0000 0.0000  plane waves:    9338
 k-point   3 :   0.0000 0.3333 0.0000  plane waves:    9360
 k-point   4 :   0.3333 0.3333 0.0000  plane waves:    9340

 maximum and minimum number of plane-waves per node :       598      568

 maximum number of plane-waves:      9360
 maximum index in each direction: 
   IXMAX=    7   IYMAX=   10   IZMAX=   42
   IXMIN=   -7   IYMIN=  -10   IZMIN=  -42


 real space projection operators:
  total allocation   :       1493.01 KBytes
  max/ min on nodes  :        131.26         65.31


 parallel 3D FFT for wavefunctions:
    minimum data exchange during FFTs selected (reduces bandwidth)
 parallel 3D FFT for charge:
    minimum data exchange during FFTs selected (reduces bandwidth)


 total amount of memory used by VASP MPI-rank0    33268. kBytes
=======================================================================

   base      :      30000. kBytes
   nonlr-proj:        883. kBytes
   fftplans  :        760. kBytes
   grid      :       1383. kBytes
   one-center:          6. kBytes
   wavefun   :        236. kBytes
 
     INWAV:  cpu time    0.0000: real time    0.0000
 Broyden mixing: mesh for mixing (old mesh)
   NGX = 15   NGY = 21   NGZ = 85
  (NGX  = 48   NGY  = 64   NGZ  =256)
  gives a total of  26775 points

 initial charge density was supplied:
 charge density of overlapping atoms calculated
 number of electron      64.0000000 magnetization 
 keeping initial charge density in first step


--------------------------------------------------------------------------------------------------------


 Maximum index for non-local projection operator          165
 Maximum index for augmentation-charges          565 (set IRDMAX)


--------------------------------------------------------------------------------------------------------


 First call to EWALD:  gamma=   0.221
 Maximum number of real-space cells 5x 5x 1
 Maximum number of reciprocal cells 2x 2x 8

    FEWALD:  cpu time    0.0015: real time    0.0015


--------------------------------------- Iteration      1(   1)  ---------------------------------------


    POTLOK:  cpu time    0.0132: real time    0.0165
    SETDIJ:  cpu time    0.0414: real time    0.0417
     EDDAV:  cpu time    0.1654: real time    0.1733
       DOS:  cpu time    0.0020: real time    0.0024
    --------------------------------------------
      LOOP:  cpu time    0.2220: real time    0.2339

 eigenvalue-minimisations  :   464
 total energy-change (2. order) : 0.1662571E+03  (-0.2360786E+04)
 number of electron      64.0000000 magnetization 
 augmentation part       64.0000000 magnetization 

 DIPCOR: dipole corrections for dipol
 direction  3 min pos     3,
 dipolmoment           0.002170     -0.002170      0.003068 electrons x Angstroem
 Tr[quadrupol]      -403.382779

 energy correction for charged system         0.000000 eV
 dipol+quadrupol energy correction            0.000002 eV
 added-field ion interaction          0.000000 eV  (added to PSCEN)


 Free energy of the ion-electron system (eV)
  ---------------------------------------------------
  alpha Z        PSCENC =        -0.80521602
  Ewald energy   TEWEN  =      5762.65833230
  -Hartree energ DENC   =     -8856.65910898
  -exchange      EXHF   =         0.00000000
  -V(xc)+E(xc)   XCENC  =      -273.08140228
  PAW double counting   =      3165.81388983    -2723.36158796
  entropy T*S    EENTRO =        -0.02114413
  eigenvalues    EBANDS =      -338.10394605
  atomic energy  EATOM  =      3429.81723989
  Solvation  Ediel_sol  =         0.00000000
  ---------------------------------------------------
  free energy    TOTEN  =       166.25705659 eV

  energy without entropy =      166.27820072  energy(sigma->0) =      166.26762866


--------------------------------------------------------------------------------------------------------




--------------------------------------- Iteration      1(   2)  ---------------------------------------


     EDDAV:  cpu time    0.1563: real time    0.1583
       DOS:  cpu time    0.0004: real time    0.0004
    --------------------------------------------
      LOOP:  cpu time    0.1566: real time    0.1587

 eigenvalue-minimisations  :   472
 total energy-change (2. order) :-0.5012238E+03  (-0.4767694E+03)
 number of electron      64.0000000 magnetization 
 augmentation part       64.0000000 magnetization 

 DIPCOR: dipole corrections for dipol
 direction  3 min pos     3,
 dipolmoment           0.002170     -0.002170      0.003068 electrons x Angstroem
 Tr[quadrupol]      -403.382779

 energy correction for charged system         0.000000 eV
 dipol+quadrupol energy correction            0.000002 eV
 added-field ion interaction          0.000000 eV  (added to PSCEN)


 Free energy of the ion-electron system (eV)
  ---------------------------------------------------
  alpha Z        PSCENC =        -0.80521602
  Ewald energy   TEWEN  =      5762.65833230
  -Hartree energ DENC   =     -8856.65910898
  -exchange      EXHF   =         0.00000000
  -V(xc)+E(xc)   XCENC  =      -273.08140228
  PAW double counting   =      3165.81388983    -2723.36158796
  entropy T*S    EENTRO =        -0.03815150
  eigenvalues    EBANDS =      -839.31074393
  atomic energy  EATOM  =      3429.81723989
  Solvation  Ediel_sol  =         0.00000000
  ---------------------------------------------------
  free energy    TOTEN  =      -334.96674866 eV

  energy without entropy =     -334.92859715  energy(sigma->0) =     -334.94767291


--------------------------------------------------------------------------------------------------------




--------------------------------------- Iteration      1(   3)  ---------------------------------------


     EDDAV:  cpu time    0.3479: real time    0.4561
       DOS:  cpu time    0.0003: real time    0.0003
    --------------------------------------------
      LOOP:  cpu time    0.3482: real time    0.4564

 eigenvalue-minimisations  :   696
 total energy-change (2. order) :-0.1450898E+03  (-0.1382036E+03)
 number of electron      64.0000000 magnetization 
 augmentation part       64.0000000 magnetization 

 DIPCOR: dipole corrections for dipol
 direction  3 min pos     3,
 dipolmoment           0.002170     -0.002170      0.003068 electrons x Angstroem
 Tr[quadrupol]      -403.382779

 energy correction for charged system         0.000000 eV
 dipol+quadrupol energy correction            0.000002 eV
 added-field ion interaction          0.000000 eV  (added to PSCEN)


 Free energy of the ion-electron system (eV)
  ---------------------------------------------------
  alpha Z        PSCENC =        -0.80521602
  Ewald energy   TEWEN  =      5762.65833230
  -Hartree energ DENC   =     -8856.65910898
  -exchange      EXHF   =         0.00000000
  -V(xc)+E(xc)   XCENC  =      -273.08140228
  PAW double counting   =      3165.81388983    -2723.36158796
  entropy T*S    EENTRO =        -0.00000028
  eigenvalues    EBANDS =      -984.43866370
  atomic energy  EATOM  =      3429.81723989
  Solvation  Ediel_sol  =         0.00000000
  ---------------------------------------------------
  free energy    TOTEN  =      -480.05651721 eV

  energy without entropy =     -480.05651693  energy(sigma->0) =     -480.05651707


--------------------------------------------------------------------------------------------------------




--------------------------------------- Iteration      1(   4)  ---------------------------------------


     EDDAV:  cpu time    0.1416: real time    0.1422
       DOS:  cpu time    0.0003: real time    0.0003
    --------------------------------------------
      LOOP:  cpu time    0.1419: real time    0.1425

 eigenvalue-minimisations  :   512
 total energy-change (2. order) :-0.7101830E+01  (-0.7034451E+01)
 number of electron      64.0000000 magnetization 
 augmentation part       64.0000000 magnetization 

 DIPCOR: dipole corrections for dipol
 direction  3 min pos     3,
 dipolmoment           0.002170     -0.002170      0.003068 electrons x Angstroem
 Tr[quadrupol]      -403.382779

 energy correction for charged system         0.000000 eV
 dipol+quadrupol energy correction            0.000002 eV
 added-field ion interaction          0.000000 eV  (added to PSCEN)


 Free energy of the ion-electron system (eV)
  ---------------------------------------------------
  alpha Z        PSCENC =        -0.80521602
  Ewald energy   TEWEN  =      5762.65833230
  -Hartree energ DENC   =     -8856.65910898
  -exchange      EXHF   =         0.00000000
  -V(xc)+E(xc)   XCENC  =      -273.08140228
  PAW double counting   =      3165.81388983    -2723.36158796
  entropy T*S    EENTRO =        -0.00000002
  eigenvalues    EBANDS =      -991.54049417
  atomic energy  EATOM  =      3429.81723989
  Solvation  Ediel_sol  =         0.00000000
  ---------------------------------------------------
  free energy    TOTEN  =      -487.15834741 eV

  energy without entropy =     -487.15834739  energy(sigma->0) =     -487.15834740


--------------------------------------------------------------------------------------------------------




--------------------------------------- Iteration      1(   5)  ---------------------------------------


     EDDAV:  cpu time    0.1358: real time    0.1367
       DOS:  cpu time    0.0003: real time    0.0003
    CHARGE:  cpu time    0.0136: real time    0.0140
    MIXING:  cpu time    0.0040: real time    0.0052
    --------------------------------------------
      LOOP:  cpu time    0.1537: real time    0.1561

 eigenvalue-minimisations  :   488
 total energy-change (2. order) :-0.1918124E+00  (-0.1916981E+00)
 number of electron      63.9999871 magnetization 
 augmentation part        5.5565002 magnetization 

 DIPCOR: dipole corrections for dipol
 direction  3 min pos     3,
 dipolmoment           0.002170     -0.002170      0.003068 electrons x Angstroem
 Tr[quadrupol]      -403.382779

 energy correction for charged system         0.000000 eV
 dipol+quadrupol energy correction            0.000002 eV
 added-field ion interaction          0.000000 eV  (added to PSCEN)


 Broyden mixing:
  rms(total) = 0.46773E+02    rms(broyden)= 0.46773E+02
  rms(prec ) = 0.46882E+02
  weight for this iteration     100.00

 Free energy of the ion-electron system (eV)
  ---------------------------------------------------
  alpha Z        PSCENC =        -0.80521602
  Ewald energy   TEWEN  =      5762.65833230
  -Hartree energ DENC   =     -8856.65910898
  -exchange      EXHF   =         0.00000000
  -V(xc)+E(xc)   XCENC  =      -273.08140228
  PAW double counting   =      3165.81388983    -2723.36158796
  entropy T*S    EENTRO =        -0.00000001
  eigenvalues    EBANDS =      -991.73230658
  atomic energy  EATOM  =      3429.81723989
  Solvation  Ediel_sol  =         0.00000000
  ---------------------------------------------------
  free energy    TOTEN  =      -487.35015981 eV

  energy without entropy =     -487.35015980  energy(sigma->0) =     -487.35015981


--------------------------------------------------------------------------------------------------------




--------------------------------------- Iteration      1(   6)  ---------------------------------------


    POTLOK:  cpu time    0.0111: real time    0.0111
    SETDIJ:  cpu time    0.0412: real time    0.0412
    EDDIAG:  cpu time    0.0371: real time    0.0387
  RMM-DIIS:  cpu time    0.0363: real time    0.0371
    ORTHCH:  cpu time    0.0053: real time    0.0053
       DOS:  cpu time    0.0004: real time    0.0004
    CHARGE:  cpu time    0.0107: real time    0.0107
    MIXING:  cpu time    0.0022: real time    0.0025
    --------------------------------------------
      LOOP:  cpu time    0.1442: real time    0.1470

 eigenvalue-minimisations  :   411
 total energy-change (2. order) : 0.2362890E+03  (-0.1430096E+02)
 number of electron      63.9999913 magnetization 
 augmentation part       -2.4251072 magnetization 

 DIPCOR: dipole corrections for dipol
 direction  3 min pos     3,
 dipolmoment           0.463823     -0.463823      0.655945 electrons x Angstroem
 Tr[quadrupol]      -410.272807

 energy correction for charged system         0.000000 eV
 dipol+quadrupol energy correction            0.075693 eV
 added-field ion interaction          0.000000 eV  (added to PSCEN)


 Broyden mixing:
  rms(total) = 0.20127E+02    rms(broyden)= 0.20127E+02
  rms(prec ) = 0.20787E+02
  weight for this iteration     100.00

 eigenvalues of (default mixing * dielectric matrix)
  average eigenvalue GAMMA=   0.7077
  0.7077

 Free energy of the ion-electron system (eV)
  ---------------------------------------------------
  alpha Z        PSCENC =        -0.72952439
  Ewald energy   TEWEN  =      5762.65833230
  -Hartree energ DENC   =     -9257.00105705
  -exchange      EXHF   =         0.00000000
  -V(xc)+E(xc)   XCENC  =      -255.85911770
  PAW double counting   =   1580015.52843766 -1579641.24325803
  entropy T*S    EENTRO =        -0.04478394
  eigenvalues    EBANDS =      -304.18738528
  atomic energy  EATOM  =      3429.81723989
  Solvation  Ediel_sol  =         0.00000000
  ---------------------------------------------------
  free energy    TOTEN  =      -251.06111655 eV

  energy without entropy =     -251.01633261  energy(sigma->0) =     -251.03872458


--------------------------------------------------------------------------------------------------------




--------------------------------------- Iteration      1(   7)  ---------------------------------------


    POTLOK:  cpu time    0.0107: real time    0.0107
    SETDIJ:  cpu time    0.0410: real time    0.0410
    EDDIAG:  cpu time    0.0336: real time    0.0347
  RMM-DIIS:  cpu time    0.0568: real time    0.0571
    ORTHCH:  cpu time    0.0049: real time    0.0089
       DOS:  cpu time    0.0040: real time    0.0040
    CHARGE:  cpu time    0.0163: real time    0.0163
    MIXING:  cpu time    0.0007: real time    0.0007
    --------------------------------------------
      LOOP:  cpu time    0.1680: real time    0.1733

 eigenvalue-minimisations  :   541
 total energy-change (2. order) :-0.5875572E+02  (-0.1336591E+02)
 number of electron      63.9999866 magnetization 
 augmentation part        3.7034156 magnetization 

 DIPCOR: dipole corrections for dipol
 direction  3 min pos     3,
 dipolmoment          -0.082629      0.082629     -0.116855 electrons x Angstroem
 Tr[quadrupol]      -404.119317

 energy correction for charged system         0.000000 eV
 dipol+quadrupol energy correction            0.002402 eV
 added-field ion interaction          0.000000 eV  (added to PSCEN)


 Broyden mixing:
  rms(total) = 0.37854E+02    rms(broyden)= 0.37853E+02
  rms(prec ) = 0.38058E+02
  weight for this iteration     100.00

 eigenvalues of (default mixing * dielectric matrix)
  average eigenvalue GAMMA=   1.0458
  1.7347  0.3569

 Free energy of the ion-electron system (eV)
  ---------------------------------------------------
  alpha Z        PSCENC =        -0.80281543
  Ewald energy   TEWEN  =      5762.65833230
  -Hartree energ DENC   =     -8884.56308395
  -exchange      EXHF   =         0.00000000
  -V(xc)+E(xc)   XCENC  =      -267.86468157
  PAW double counting   =    857499.23986451  -857096.06266630
  entropy T*S    EENTRO =        -0.03879783
  eigenvalues    EBANDS =      -752.20022669
  atomic energy  EATOM  =      3429.81723989
  Solvation  Ediel_sol  =         0.00000000
  ---------------------------------------------------
  free energy    TOTEN  =      -309.81683506 eV

  energy without entropy =     -309.77803723  energy(sigma->0) =     -309.79743615


--------------------------------------------------------------------------------------------------------




--------------------------------------- Iteration      1(   8)  ---------------------------------------


    POTLOK:  cpu time    0.0153: real time    0.0272
    SETDIJ:  cpu time    0.0437: real time    0.0437
    EDDIAG:  cpu time    0.0394: real time    0.0407
  RMM-DIIS:  cpu time    0.0347: real time    0.0360
    ORTHCH:  cpu time    0.0045: real time    0.0045
       DOS:  cpu time    0.0004: real time    0.0004
    CHARGE:  cpu time    0.0118: real time    0.0123
    MIXING:  cpu time    0.0004: real time    0.0004
    --------------------------------------------
      LOOP:  cpu time    0.1503: real time    0.1651

 eigenvalue-minimisations  :   495
 total energy-change (2. order) : 0.1088096E+03  (-0.7394537E+01)
 number of electron      63.9999809 magnetization 
 augmentation part        5.3762402 magnetization 

 DIPCOR: dipole corrections for dipol
 direction  3 min pos     3,
 dipolmoment          -0.585289      0.585289     -0.827724 electrons x Angstroem
 Tr[quadrupol]      -409.040538

 energy correction for charged system         0.000000 eV
 dipol+quadrupol energy correction            0.120529 eV
 added-field ion interaction          0.000000 eV  (added to PSCEN)


 Broyden mixing:
  rms(total) = 0.23938E+02    rms(broyden)= 0.23937E+02
  rms(prec ) = 0.24181E+02
  weight for this iteration     100.00

 eigenvalues of (default mixing * dielectric matrix)
  average eigenvalue GAMMA=   0.8514
  1.8071  0.3735  0.3735

 Free energy of the ion-electron system (eV)
  ---------------------------------------------------
  alpha Z        PSCENC =        -0.68468824
  Ewald energy   TEWEN  =      5762.65833230
  -Hartree energ DENC   =     -8937.42149621
  -exchange      EXHF   =         0.00000000
  -V(xc)+E(xc)   XCENC  =      -264.84418078
  PAW double counting   =   2352940.87558953 -2352578.31088481
  entropy T*S    EENTRO =        -0.00012082
  eigenvalues    EBANDS =      -553.09700750
  atomic energy  EATOM  =      3429.81723989
  Solvation  Ediel_sol  =         0.00000000
  ---------------------------------------------------
  free energy    TOTEN  =      -201.00721665 eV

  energy without entropy =     -201.00709583  energy(sigma->0) =     -201.00715624


--------------------------------------------------------------------------------------------------------




--------------------------------------- Iteration      1(   9)  ---------------------------------------


    POTLOK:  cpu time    0.0109: real time    0.0109
    SETDIJ:  cpu time    0.0409: real time    0.0409
    EDDIAG:  cpu time    0.0343: real time    0.0352
  RMM-DIIS:  cpu time    0.0311: real time    0.0311
    ORTHCH:  cpu time    0.0044: real time    0.0044
       DOS:  cpu time    0.0004: real time    0.0004
    CHARGE:  cpu time    0.0108: real time    0.0108
    MIXING:  cpu time    0.0005: real time    0.0005
    --------------------------------------------
      LOOP:  cpu time    0.1334: real time    0.1342

 eigenvalue-minimisations  :   442
 total energy-change (2. order) : 0.6507145E+02  (-0.8042578E+00)
 number of electron      63.9999750 magnetization 
 augmentation part        7.6797142 magnetization 

 DIPCOR: dipole corrections for dipol
 direction  3 min pos     3,
 dipolmoment          -0.244195      0.244195     -0.345343 electrons x Angstroem
 Tr[quadrupol]      -409.767040

 energy correction for charged system         0.000000 eV
 dipol+quadrupol energy correction            0.020981 eV
 added-field ion interaction          0.000000 eV  (added to PSCEN)


 Broyden mixing:
  rms(total) = 0.64013E+01    rms(broyden)= 0.63997E+01
  rms(prec ) = 0.67285E+01
  weight for this iteration     100.00

 eigenvalues of (default mixing * dielectric matrix)
  average eigenvalue GAMMA=   0.6410
  1.2701  0.4922  0.4922  0.3094

 Free energy of the ion-electron system (eV)
  ---------------------------------------------------
  alpha Z        PSCENC =        -0.78423673
  Ewald energy   TEWEN  =      5762.65833230
  -Hartree energ DENC   =     -9024.32735810
  -exchange      EXHF   =         0.00000000
  -V(xc)+E(xc)   XCENC  =      -260.17527244
  PAW double counting   =   2919946.79575795 -2919603.65989304
  entropy T*S    EENTRO =        -0.00282154
  eigenvalues    EBANDS =      -386.25751802
  atomic energy  EATOM  =      3429.81723989
  Solvation  Ediel_sol  =         0.00000000
  ---------------------------------------------------
  free energy    TOTEN  =      -135.93576973 eV

  energy without entropy =     -135.93294819  energy(sigma->0) =     -135.93435896


--------------------------------------------------------------------------------------------------------




--------------------------------------- Iteration      1(  10)  ---------------------------------------


    POTLOK:  cpu time    0.0104: real time    0.0104
    SETDIJ:  cpu time    0.0408: real time    0.0408
    EDDIAG:  cpu time    0.0339: real time    0.0346
  RMM-DIIS:  cpu time    0.0316: real time    0.0316
    ORTHCH:  cpu time    0.0043: real time    0.0043
       DOS:  cpu time    0.0004: real time    0.0004
    CHARGE:  cpu time    0.0108: real time    0.0108
    MIXING:  cpu time    0.0006: real time    0.0006
    --------------------------------------------
      LOOP:  cpu time    0.1327: real time    0.1335

 eigenvalue-minimisations  :   477
 total energy-change (2. order) : 0.1792431E+02  (-0.6969688E+00)
 number of electron      63.9999752 magnetization 
 augmentation part        7.1029859 magnetization 

 DIPCOR: dipole corrections for dipol
 direction  3 min pos     3,
 dipolmoment          -0.031553      0.031553     -0.044622 electrons x Angstroem
 Tr[quadrupol]      -409.915450

 energy correction for charged system         0.000000 eV
 dipol+quadrupol energy correction            0.000350 eV
 added-field ion interaction          0.000000 eV  (added to PSCEN)


 Broyden mixing:
  rms(total) = 0.16653E+02    rms(broyden)= 0.16653E+02
  rms(prec ) = 0.16670E+02
  weight for this iteration     100.00

 eigenvalues of (default mixing * dielectric matrix)
  average eigenvalue GAMMA=   0.5085
  0.9542  0.4847  0.4847  0.3095  0.3095

 Free energy of the ion-electron system (eV)
  ---------------------------------------------------
  alpha Z        PSCENC =        -0.80486739
  Ewald energy   TEWEN  =      5762.65833230
  -Hartree energ DENC   =     -9075.22142806
  -exchange      EXHF   =         0.00000000
  -V(xc)+E(xc)   XCENC  =      -258.68437963
  PAW double counting   =   2303151.57778168 -2302814.28622218
  entropy T*S    EENTRO =        -0.01964728
  eigenvalues    EBANDS =      -313.04826718
  atomic energy  EATOM  =      3429.81723989
  Solvation  Ediel_sol  =         0.00000000
  ---------------------------------------------------
  free energy    TOTEN  =      -118.01145786 eV

  energy without entropy =     -117.99181058  energy(sigma->0) =     -118.00163422


--------------------------------------------------------------------------------------------------------




--------------------------------------- Iteration      1(  11)  ---------------------------------------


    POTLOK:  cpu time    0.0101: real time    0.0101
    SETDIJ:  cpu time    0.0408: real time    0.0408
    EDDIAG:  cpu time    0.0344: real time    0.0344
  RMM-DIIS:  cpu time    0.0338: real time    0.0338
    ORTHCH:  cpu time    0.0042: real time    0.0042
       DOS:  cpu time    0.0004: real time    0.0004
    CHARGE:  cpu time    0.0108: real time    0.0108
    MIXING:  cpu time    0.0006: real time    0.0006
    --------------------------------------------
      LOOP:  cpu time    0.1351: real time    0.1351

 eigenvalue-minimisations  :   536
 total energy-change (2. order) :-0.9496248E+00  (-0.1514550E+00)
 number of electron      63.9999754 magnetization 
 augmentation part        6.9071732 magnetization 

 DIPCOR: dipole corrections for dipol
 direction  3 min pos     3,
 dipolmoment           0.022716     -0.022716      0.032125 electrons x Angstroem
 Tr[quadrupol]      -410.003880

 energy correction for charged system         0.000000 eV
 dipol+quadrupol energy correction            0.000182 eV
 added-field ion interaction          0.000000 eV  (added to PSCEN)


 Broyden mixing:
  rms(total) = 0.15027E+02    rms(broyden)= 0.15027E+02
  rms(prec ) = 0.15046E+02
  weight for this iteration     100.00

 eigenvalues of (default mixing * dielectric matrix)
  average eigenvalue GAMMA=   0.5034
  1.1935  0.4762  0.4762  0.3276  0.3276  0.2190

 Free energy of the ion-electron system (eV)
  ---------------------------------------------------
  alpha Z        PSCENC =        -0.80503612
  Ewald energy   TEWEN  =      5762.65833230
  -Hartree energ DENC   =     -9078.20767397
  -exchange      EXHF   =         0.00000000
  -V(xc)+E(xc)   XCENC  =      -259.12446131
  PAW double counting   =   1905152.32081056 -1904815.24611459
  entropy T*S    EENTRO =        -0.02504203
  eigenvalues    EBANDS =      -310.34913737
  atomic energy  EATOM  =      3429.81723989
  Solvation  Ediel_sol  =         0.00000000
  ---------------------------------------------------
  free energy    TOTEN  =      -118.96108264 eV

  energy without entropy =     -118.93604061  energy(sigma->0) =     -118.94856162


--------------------------------------------------------------------------------------------------------




--------------------------------------- Iteration      1(  12)  ---------------------------------------


    POTLOK:  cpu time    0.0106: real time    0.0106
    SETDIJ:  cpu time    0.0410: real time    0.0409
    EDDIAG:  cpu time    0.0339: real time    0.0346
  RMM-DIIS:  cpu time    0.0341: real time    0.0341
    ORTHCH:  cpu time    0.0042: real time    0.0044
       DOS:  cpu time    0.0004: real time    0.0004
    CHARGE:  cpu time    0.0107: real time    0.0107
    MIXING:  cpu time    0.0006: real time    0.0006
    --------------------------------------------
      LOOP:  cpu time    0.1355: real time    0.1363

 eigenvalue-minimisations  :   531
 total energy-change (2. order) :-0.1885022E+01  (-0.3503213E-01)
 number of electron      63.9999791 magnetization 
 augmentation part        5.4268263 magnetization 

 DIPCOR: dipole corrections for dipol
 direction  3 min pos     3,
 dipolmoment          -0.033630      0.033630     -0.047561 electrons x Angstroem
 Tr[quadrupol]      -410.032683

 energy correction for charged system         0.000000 eV
 dipol+quadrupol energy correction            0.000398 eV
 added-field ion interaction          0.000000 eV  (added to PSCEN)


 Broyden mixing:
  rms(total) = 0.14922E+02    rms(broyden)= 0.14921E+02
  rms(prec ) = 0.15012E+02
  weight for this iteration     100.00

 eigenvalues of (default mixing * dielectric matrix)
  average eigenvalue GAMMA=   0.4310
  1.2508  0.4690  0.4690  0.2837  0.2837  0.1302  0.1302

 Free energy of the ion-electron system (eV)
  ---------------------------------------------------
  alpha Z        PSCENC =        -0.80481973
  Ewald energy   TEWEN  =      5762.65833230
  -Hartree energ DENC   =     -9077.41504738
  -exchange      EXHF   =         0.00000000
  -V(xc)+E(xc)   XCENC  =      -258.84954206
  PAW double counting   =   2138124.79721112 -2137787.23475068
  entropy T*S    EENTRO =        -0.08465422
  eigenvalues    EBANDS =      -313.73007338
  atomic energy  EATOM  =      3429.81723989
  Solvation  Ediel_sol  =         0.00000000
  ---------------------------------------------------
  free energy    TOTEN  =      -120.84610416 eV

  energy without entropy =     -120.76144994  energy(sigma->0) =     -120.80377705


--------------------------------------------------------------------------------------------------------




--------------------------------------- Iteration      1(  13)  ---------------------------------------


    POTLOK:  cpu time    0.0101: real time    0.0101
    SETDIJ:  cpu time    0.0408: real time    0.0408
    EDDIAG:  cpu time    0.0428: real time    0.0428
  RMM-DIIS:  cpu time    0.0352: real time    0.0352
    ORTHCH:  cpu time    0.0043: real time    0.0043
       DOS:  cpu time    0.0004: real time    0.0004
    CHARGE:  cpu time    0.0106: real time    0.0121
    MIXING:  cpu time    0.0006: real time    0.0006
    --------------------------------------------
      LOOP:  cpu time    0.1449: real time    0.1464

 eigenvalue-minimisations  :   533
 total energy-change (2. order) :-0.1584048E+01  (-0.7852960E-02)
 number of electron      63.9999791 magnetization 
 augmentation part        4.9658850 magnetization 

 DIPCOR: dipole corrections for dipol
 direction  3 min pos     3,
 dipolmoment          -0.033790      0.033790     -0.047787 electrons x Angstroem
 Tr[quadrupol]      -410.044599

 energy correction for charged system         0.000000 eV
 dipol+quadrupol energy correction            0.000402 eV
 added-field ion interaction          0.000000 eV  (added to PSCEN)


 Broyden mixing:
  rms(total) = 0.16070E+02    rms(broyden)= 0.16069E+02
  rms(prec ) = 0.16235E+02
  weight for this iteration     100.00

 eigenvalues of (default mixing * dielectric matrix)
  average eigenvalue GAMMA=   0.4504
  1.5259  0.4651  0.4651  0.3264  0.3264  0.2247  0.2247  0.0451

 Free energy of the ion-electron system (eV)
  ---------------------------------------------------
  alpha Z        PSCENC =        -0.80481594
  Ewald energy   TEWEN  =      5762.65833230
  -Hartree energ DENC   =     -9078.64224855
  -exchange      EXHF   =         0.00000000
  -V(xc)+E(xc)   XCENC  =      -258.78454356
  PAW double counting   =   2144114.59294498 -2143777.73891159
  entropy T*S    EENTRO =        -0.06034599
  eigenvalues    EBANDS =      -313.46780409
  atomic energy  EATOM  =      3429.81723989
  Solvation  Ediel_sol  =         0.00000000
  ---------------------------------------------------
  free energy    TOTEN  =      -122.43015257 eV

  energy without entropy =     -122.36980658  energy(sigma->0) =     -122.39997957


--------------------------------------------------------------------------------------------------------




--------------------------------------- Iteration      1(  14)  ---------------------------------------


    POTLOK:  cpu time    0.0106: real time    0.0106
    SETDIJ:  cpu time    0.0407: real time    0.0407
    EDDIAG:  cpu time    0.0346: real time    0.0346
  RMM-DIIS:  cpu time    0.0395: real time    0.0395
    ORTHCH:  cpu time    0.0043: real time    0.0043
       DOS:  cpu time    0.0004: real time    0.0004
    CHARGE:  cpu time    0.0108: real time    0.0108
    MIXING:  cpu time    0.0007: real time    0.0007
    --------------------------------------------
      LOOP:  cpu time    0.1416: real time    0.1416

 eigenvalue-minimisations  :   588
 total energy-change (2. order) : 0.4144267E+01  (-0.3332338E-01)
 number of electron      63.9999780 magnetization 
 augmentation part        5.3456953 magnetization 

 DIPCOR: dipole corrections for dipol
 direction  3 min pos     3,
 dipolmoment          -0.094039      0.094039     -0.132992 electrons x Angstroem
 Tr[quadrupol]      -409.957562

 energy correction for charged system         0.000000 eV
 dipol+quadrupol energy correction            0.003112 eV
 added-field ion interaction          0.000000 eV  (added to PSCEN)


 Broyden mixing:
  rms(total) = 0.17212E+02    rms(broyden)= 0.17210E+02
  rms(prec ) = 0.17325E+02
  weight for this iteration     100.00

 eigenvalues of (default mixing * dielectric matrix)
  average eigenvalue GAMMA=   0.5129
  1.7365  0.7299  0.3967  0.3967  0.4509  0.4509  0.3094  0.1046  0.0402

 Free energy of the ion-electron system (eV)
  ---------------------------------------------------
  alpha Z        PSCENC =        -0.80210615
  Ewald energy   TEWEN  =      5762.65833230
  -Hartree energ DENC   =     -9077.68748961
  -exchange      EXHF   =         0.00000000
  -V(xc)+E(xc)   XCENC  =      -258.28404758
  PAW double counting   =   2363987.81401109 -2363653.25862150
  entropy T*S    EENTRO =        -0.07899076
  eigenvalues    EBANDS =      -308.46421310
  atomic energy  EATOM  =      3429.81723989
  Solvation  Ediel_sol  =         0.00000000
  ---------------------------------------------------
  free energy    TOTEN  =      -118.28588544 eV

  energy without entropy =     -118.20689468  energy(sigma->0) =     -118.24639006


--------------------------------------------------------------------------------------------------------




--------------------------------------- Iteration      1(  15)  ---------------------------------------


    POTLOK:  cpu time    0.0103: real time    0.0103
    SETDIJ:  cpu time    0.0408: real time    0.0408
    EDDIAG:  cpu time    0.0343: real time    0.0343
  RMM-DIIS:  cpu time    0.0473: real time    0.0473
    ORTHCH:  cpu time    0.0043: real time    0.0043
       DOS:  cpu time    0.0004: real time    0.0004
    CHARGE:  cpu time    0.0106: real time    0.0106
    MIXING:  cpu time    0.0007: real time    0.0007
    --------------------------------------------
      LOOP:  cpu time    0.1487: real time    0.1487

 eigenvalue-minimisations  :   706
 total energy-change (2. order) :-0.6753876E+01  (-0.4339113E+00)
 number of electron      63.9999739 magnetization 
 augmentation part        8.0021864 magnetization 

 DIPCOR: dipole corrections for dipol
 direction  3 min pos     3,
 dipolmoment          -0.055697      0.055697     -0.078767 electrons x Angstroem
 Tr[quadrupol]      -410.687251

 energy correction for charged system         0.000000 eV
 dipol+quadrupol energy correction            0.001091 eV
 added-field ion interaction          0.000000 eV  (added to PSCEN)


 Broyden mixing:
  rms(total) = 0.15146E+02    rms(broyden)= 0.15145E+02
  rms(prec ) = 0.15213E+02
  weight for this iteration     100.00

 eigenvalues of (default mixing * dielectric matrix)
  average eigenvalue GAMMA=   0.5539
  1.7791  0.8531  0.6717  0.6717  0.3041  0.4108  0.4108  0.2956  0.1016  0.0400

 Free energy of the ion-electron system (eV)
  ---------------------------------------------------
  alpha Z        PSCENC =        -0.80412619
  Ewald energy   TEWEN  =      5762.65833230
  -Hartree energ DENC   =     -9059.92364523
  -exchange      EXHF   =         0.00000000
  -V(xc)+E(xc)   XCENC  =      -258.64670824
  PAW double counting   =   3098060.50493444 -3097717.19243368
  entropy T*S    EENTRO =        -0.00029935
  eigenvalues    EBANDS =      -341.45305503
  atomic energy  EATOM  =      3429.81723989
  Solvation  Ediel_sol  =         0.00000000
  ---------------------------------------------------
  free energy    TOTEN  =      -125.03976109 eV

  energy without entropy =     -125.03946174  energy(sigma->0) =     -125.03961142


--------------------------------------------------------------------------------------------------------




--------------------------------------- Iteration      1(  16)  ---------------------------------------


    POTLOK:  cpu time    0.0101: real time    0.0101
    SETDIJ:  cpu time    0.0410: real time    0.0410
    EDDIAG:  cpu time    0.0343: real time    0.0343
  RMM-DIIS:  cpu time    0.0483: real time    0.0483
    ORTHCH:  cpu time    0.0043: real time    0.0043
       DOS:  cpu time    0.0004: real time    0.0004
    CHARGE:  cpu time    0.0106: real time    0.0106
    MIXING:  cpu time    0.0008: real time    0.0008
    --------------------------------------------
      LOOP:  cpu time    0.1498: real time    0.1498

 eigenvalue-minimisations  :   728
 total energy-change (2. order) :-0.1156952E+02  (-0.7203301E+00)
 number of electron      63.9999768 magnetization 
 augmentation part        7.3641347 magnetization 

 DIPCOR: dipole corrections for dipol
 direction  3 min pos     3,
 dipolmoment          -0.193056      0.193056     -0.273022 electrons x Angstroem
 Tr[quadrupol]      -410.854473

 energy correction for charged system         0.000000 eV
 dipol+quadrupol energy correction            0.013113 eV
 added-field ion interaction          0.000000 eV  (added to PSCEN)


 Broyden mixing:
  rms(total) = 0.11156E+02    rms(broyden)= 0.11156E+02
  rms(prec ) = 0.11320E+02
  weight for this iteration     100.00

 eigenvalues of (default mixing * dielectric matrix)
  average eigenvalue GAMMA=   0.5827
  2.0027  1.0816  0.7200  0.7200  0.2871  0.3791  0.3791  0.3488  0.3488  0.1022
  0.0400

 Free energy of the ion-electron system (eV)
  ---------------------------------------------------
  alpha Z        PSCENC =        -0.79210418
  Ewald energy   TEWEN  =      5762.65833230
  -Hartree energ DENC   =     -9046.15726183
  -exchange      EXHF   =         0.00000000
  -V(xc)+E(xc)   XCENC  =      -258.36797386
  PAW double counting   =   4325989.14295281 -4325629.04529939
  entropy T*S    EENTRO =        -0.01002674
  eigenvalues    EBANDS =      -383.85514020
  atomic energy  EATOM  =      3429.81723989
  Solvation  Ediel_sol  =         0.00000000
  ---------------------------------------------------
  free energy    TOTEN  =      -136.60928120 eV

  energy without entropy =     -136.59925446  energy(sigma->0) =     -136.60426783


--------------------------------------------------------------------------------------------------------




--------------------------------------- Iteration      1(  17)  ---------------------------------------


    POTLOK:  cpu time    0.0103: real time    0.0103
    SETDIJ:  cpu time    0.1106: real time    0.1114
    EDDIAG:  cpu time    0.0478: real time    0.1000
  RMM-DIIS:  cpu time    0.0433: real time    0.0433
    ORTHCH:  cpu time    0.0039: real time    0.0039
       DOS:  cpu time    0.0004: real time    0.0004
    CHARGE:  cpu time    0.0107: real time    0.0107
    MIXING:  cpu time    0.0008: real time    0.0008
    --------------------------------------------
      LOOP:  cpu time    0.2278: real time    0.2808

 eigenvalue-minimisations  :   600
 total energy-change (2. order) : 0.3451271E+01  (-0.8514699E-01)
 number of electron      63.9999783 magnetization 
 augmentation part        6.7965048 magnetization 

 DIPCOR: dipole corrections for dipol
 direction  3 min pos     3,
 dipolmoment          -0.163585      0.163585     -0.231344 electrons x Angstroem
 Tr[quadrupol]      -411.171974

 energy correction for charged system         0.000000 eV
 dipol+quadrupol energy correction            0.009415 eV
 added-field ion interaction          0.000000 eV  (added to PSCEN)


 Broyden mixing:
  rms(total) = 0.13036E+02    rms(broyden)= 0.13036E+02
  rms(prec ) = 0.13194E+02
  weight for this iteration     100.00

 eigenvalues of (default mixing * dielectric matrix)
  average eigenvalue GAMMA=   0.5805
  1.6489  1.2283  0.7297  0.7297  0.2815  0.5128  0.5128  0.4398  0.4398  0.3011
  0.1020  0.0400

 Free energy of the ion-electron system (eV)
  ---------------------------------------------------
  alpha Z        PSCENC =        -0.79580227
  Ewald energy   TEWEN  =      5762.65833230
  -Hartree energ DENC   =     -9057.11156588
  -exchange      EXHF   =         0.00000000
  -V(xc)+E(xc)   XCENC  =      -257.30714905
  PAW double counting   =   5699117.40201839 -5698752.39434433
  entropy T*S    EENTRO =        -0.00211897
  eigenvalues    EBANDS =      -375.42462016
  atomic energy  EATOM  =      3429.81723989
  Solvation  Ediel_sol  =         0.00000000
  ---------------------------------------------------
  free energy    TOTEN  =      -133.15801009 eV

  energy without entropy =     -133.15589112  energy(sigma->0) =     -133.15695061


--------------------------------------------------------------------------------------------------------




--------------------------------------- Iteration      1(  18)  ---------------------------------------


    POTLOK:  cpu time    0.0107: real time    0.0107
    SETDIJ:  cpu time    0.0408: real time    0.0408
    EDDIAG:  cpu time    0.0340: real time    0.0342
  RMM-DIIS:  cpu time    0.0392: real time    0.0392
    ORTHCH:  cpu time    0.0043: real time    0.0043
       DOS:  cpu time    0.0004: real time    0.0004
    CHARGE:  cpu time    0.0106: real time    0.0106
    MIXING:  cpu time    0.0008: real time    0.0008
    --------------------------------------------
      LOOP:  cpu time    0.1408: real time    0.1410

 eigenvalue-minimisations  :   595
 total energy-change (2. order) :-0.4410901E+00  (-0.3337435E-01)
 number of electron      63.9999788 magnetization 
 augmentation part        6.6487846 magnetization 

 DIPCOR: dipole corrections for dipol
 direction  3 min pos     3,
 dipolmoment          -0.131593      0.131593     -0.186101 electrons x Angstroem
 Tr[quadrupol]      -411.206897

 energy correction for charged system         0.000000 eV
 dipol+quadrupol energy correction            0.006093 eV
 added-field ion interaction          0.000000 eV  (added to PSCEN)


 Broyden mixing:
  rms(total) = 0.10637E+02    rms(broyden)= 0.10637E+02
  rms(prec ) = 0.10843E+02
  weight for this iteration     100.00

 eigenvalues of (default mixing * dielectric matrix)
  average eigenvalue GAMMA=   0.6686
  1.5454  1.7343  0.8393  0.8393  0.8781  0.8781  0.2795  0.4535  0.3974  0.3974
  0.3078  0.1020  0.0400

 Free energy of the ion-electron system (eV)
  ---------------------------------------------------
  alpha Z        PSCENC =        -0.79912485
  Ewald energy   TEWEN  =      5762.65833230
  -Hartree energ DENC   =     -9057.19548117
  -exchange      EXHF   =         0.00000000
  -V(xc)+E(xc)   XCENC  =      -257.62142553
  PAW double counting   =   5945206.28714133 -5944836.97044178
  entropy T*S    EENTRO =        -0.00273979
  eigenvalues    EBANDS =      -379.77260053
  atomic energy  EATOM  =      3429.81723989
  Solvation  Ediel_sol  =         0.00000000
  ---------------------------------------------------
  free energy    TOTEN  =      -133.59910014 eV

  energy without entropy =     -133.59636035  energy(sigma->0) =     -133.59773025


--------------------------------------------------------------------------------------------------------




--------------------------------------- Iteration      1(  19)  ---------------------------------------


    POTLOK:  cpu time    0.0106: real time    0.0106
    SETDIJ:  cpu time    0.0408: real time    0.0408
    EDDIAG:  cpu time    0.0415: real time    0.0422
  RMM-DIIS:  cpu time    0.0489: real time    0.0489
    ORTHCH:  cpu time    0.0051: real time    0.0051
       DOS:  cpu time    0.0004: real time    0.0004
    CHARGE:  cpu time    0.0130: real time    0.0130
    MIXING:  cpu time    0.0031: real time    0.0031
    --------------------------------------------
      LOOP:  cpu time    0.1634: real time    0.1641

 eigenvalue-minimisations  :   727
 total energy-change (2. order) : 0.6479331E+01  (-0.4385037E+00)
 number of electron      63.9999828 magnetization 
 augmentation part        5.1421877 magnetization 

 DIPCOR: dipole corrections for dipol
 direction  3 min pos     3,
 dipolmoment          -0.120164      0.120164     -0.169937 electrons x Angstroem
 Tr[quadrupol]      -411.838623

 energy correction for charged system         0.000000 eV
 dipol+quadrupol energy correction            0.005080 eV
 added-field ion interaction          0.000000 eV  (added to PSCEN)


 Broyden mixing:
  rms(total) = 0.11551E+02    rms(broyden)= 0.11551E+02
  rms(prec ) = 0.11767E+02
  weight for this iteration     100.00

 eigenvalues of (default mixing * dielectric matrix)
  average eigenvalue GAMMA=   0.6326
  1.5733  1.7673  0.8473  0.8473  0.8644  0.8644  0.2794  0.3941  0.3941  0.4389
  0.3088  0.1020  0.0400  0.1344

 Free energy of the ion-electron system (eV)
  ---------------------------------------------------
  alpha Z        PSCENC =        -0.80013728
  Ewald energy   TEWEN  =      5762.65833230
  -Hartree energ DENC   =     -9087.00795631
  -exchange      EXHF   =         0.00000000
  -V(xc)+E(xc)   XCENC  =      -254.87072851
  PAW double counting   =  10471233.78180617-10470840.60705144
  entropy T*S    EENTRO =        -0.00008300
  eigenvalues    EBANDS =      -370.09119144
  atomic energy  EATOM  =      3429.81723989
  Solvation  Ediel_sol  =         0.00000000
  ---------------------------------------------------
  free energy    TOTEN  =      -127.11976962 eV

  energy without entropy =     -127.11968661  energy(sigma->0) =     -127.11972812


--------------------------------------------------------------------------------------------------------




--------------------------------------- Iteration      1(  20)  ---------------------------------------


    POTLOK:  cpu time    0.0133: real time    0.0133
    SETDIJ:  cpu time    0.0409: real time    0.0409
    EDDIAG:  cpu time    0.0714: real time    0.0810
  RMM-DIIS:  cpu time    0.0631: real time    0.0643
    ORTHCH:  cpu time    0.0081: real time    0.0081
       DOS:  cpu time    0.0010: real time    0.0010
    CHARGE:  cpu time    0.0152: real time    0.0152
    MIXING:  cpu time    0.0008: real time    0.0008
    --------------------------------------------
      LOOP:  cpu time    0.2139: real time    0.2247

 eigenvalue-minimisations  :   567
 total energy-change (2. order) :-0.2089359E+00  (-0.2120788E-01)
 number of electron      63.9999831 magnetization 
 augmentation part        4.9892039 magnetization 

 DIPCOR: dipole corrections for dipol
 direction  3 min pos     3,
 dipolmoment          -0.128785      0.128785     -0.182129 electrons x Angstroem
 Tr[quadrupol]      -411.877251

 energy correction for charged system         0.000000 eV
 dipol+quadrupol energy correction            0.005836 eV
 added-field ion interaction          0.000000 eV  (added to PSCEN)


 Broyden mixing:
  rms(total) = 0.11173E+02    rms(broyden)= 0.11173E+02
  rms(prec ) = 0.11401E+02
  weight for this iteration     100.00

 eigenvalues of (default mixing * dielectric matrix)
  average eigenvalue GAMMA=   0.6229
  1.5878  1.6822  0.9223  0.9223  0.7580  0.7580  0.2793  0.4566  0.4005  0.4005
  0.3074  0.3630  0.3630  0.1020  0.0400

 Free energy of the ion-electron system (eV)
  ---------------------------------------------------
  alpha Z        PSCENC =        -0.79938213
  Ewald energy   TEWEN  =      5762.65833230
  -Hartree energ DENC   =     -9088.35793335
  -exchange      EXHF   =         0.00000000
  -V(xc)+E(xc)   XCENC  =      -254.80013960
  PAW double counting   =  10758143.46051471-10757748.56101162
  entropy T*S    EENTRO =        -0.00016696
  eigenvalues    EBANDS =      -370.74615877
  atomic energy  EATOM  =      3429.81723989
  Solvation  Ediel_sol  =         0.00000000
  ---------------------------------------------------
  free energy    TOTEN  =      -127.32870555 eV

  energy without entropy =     -127.32853858  energy(sigma->0) =     -127.32862207


--------------------------------------------------------------------------------------------------------




--------------------------------------- Iteration      1(  21)  ---------------------------------------


    POTLOK:  cpu time    0.0138: real time    0.0237
    SETDIJ:  cpu time    0.0443: real time    0.0443
    EDDIAG:  cpu time    0.0381: real time    0.0388
  RMM-DIIS:  cpu time    0.0278: real time    0.0328
    ORTHCH:  cpu time    0.0044: real time    0.0044
       DOS:  cpu time    0.0004: real time    0.0004
    CHARGE:  cpu time    0.0107: real time    0.0107
    MIXING:  cpu time    0.0010: real time    0.0010
    --------------------------------------------
      LOOP:  cpu time    0.1404: real time    0.1562

 eigenvalue-minimisations  :   470
 total energy-change (2. order) :-0.2031102E+00  (-0.4455284E-02)
 number of electron      63.9999829 magnetization 
 augmentation part        5.0931049 magnetization 

 DIPCOR: dipole corrections for dipol
 direction  3 min pos     3,
 dipolmoment          -0.136140      0.136140     -0.192531 electrons x Angstroem
 Tr[quadrupol]      -411.871119

 energy correction for charged system         0.000000 eV
 dipol+quadrupol energy correction            0.006521 eV
 added-field ion interaction          0.000000 eV  (added to PSCEN)


 Broyden mixing:
  rms(total) = 0.12340E+02    rms(broyden)= 0.12340E+02
  rms(prec ) = 0.12538E+02
  weight for this iteration     100.00

 eigenvalues of (default mixing * dielectric matrix)
  average eigenvalue GAMMA=   0.6845
  1.3040  1.3040  1.6605  0.9980  0.9980  0.8602  0.8602  0.2792  0.4803  0.4803
  0.4596  0.4092  0.4092  0.3072  0.1020  0.0400

 Free energy of the ion-electron system (eV)
  ---------------------------------------------------
  alpha Z        PSCENC =        -0.79869651
  Ewald energy   TEWEN  =      5762.65833230
  -Hartree energ DENC   =     -9088.91817874
  -exchange      EXHF   =         0.00000000
  -V(xc)+E(xc)   XCENC  =      -254.90631444
  PAW double counting   =  10464878.65510348-10464484.22662317
  entropy T*S    EENTRO =        -0.01611259
  eigenvalues    EBANDS =      -369.79656601
  atomic energy  EATOM  =      3429.81723989
  Solvation  Ediel_sol  =         0.00000000
  ---------------------------------------------------
  free energy    TOTEN  =      -127.53181580 eV

  energy without entropy =     -127.51570321  energy(sigma->0) =     -127.52375950


--------------------------------------------------------------------------------------------------------




--------------------------------------- Iteration      1(  22)  ---------------------------------------


    POTLOK:  cpu time    0.0106: real time    0.0106
    SETDIJ:  cpu time    0.0408: real time    0.0408
    EDDIAG:  cpu time    0.0338: real time    0.0347
  RMM-DIIS:  cpu time    0.0322: real time    0.0322
    ORTHCH:  cpu time    0.0043: real time    0.0043
       DOS:  cpu time    0.0004: real time    0.0004
    CHARGE:  cpu time    0.0106: real time    0.0106
    MIXING:  cpu time    0.0010: real time    0.0010
    --------------------------------------------
      LOOP:  cpu time    0.1337: real time    0.1346

 eigenvalue-minimisations  :   488
 total energy-change (2. order) :-0.1896258E+01  (-0.4413633E-02)
 number of electron      63.9999826 magnetization 
 augmentation part        5.2018449 magnetization 

 DIPCOR: dipole corrections for dipol
 direction  3 min pos     3,
 dipolmoment          -0.126464      0.126464     -0.178847 electrons x Angstroem
 Tr[quadrupol]      -411.748595

 energy correction for charged system         0.000000 eV
 dipol+quadrupol energy correction            0.005627 eV
 added-field ion interaction          0.000000 eV  (added to PSCEN)


 Broyden mixing:
  rms(total) = 0.11171E+02    rms(broyden)= 0.11171E+02
  rms(prec ) = 0.11401E+02
  weight for this iteration     100.00

 eigenvalues of (default mixing * dielectric matrix)
  average eigenvalue GAMMA=   0.8031
  2.0482  1.5121  1.5121  1.4495  1.4495  0.8957  0.8957  0.2792  0.7902  0.5462
  0.5462  0.4039  0.4039  0.4714  0.3072  0.1020  0.0400

 Free energy of the ion-electron system (eV)
  ---------------------------------------------------
  alpha Z        PSCENC =        -0.79959056
  Ewald energy   TEWEN  =      5762.65833230
  -Hartree energ DENC   =     -9083.16851149
  -exchange      EXHF   =         0.00000000
  -V(xc)+E(xc)   XCENC  =      -255.16972579
  PAW double counting   =  10029896.79068792-10029504.95043154
  entropy T*S    EENTRO =        -0.00048663
  eigenvalues    EBANDS =      -374.60558768
  atomic energy  EATOM  =      3429.81723989
  Solvation  Ediel_sol  =         0.00000000
  ---------------------------------------------------
  free energy    TOTEN  =      -129.42807359 eV

  energy without entropy =     -129.42758696  energy(sigma->0) =     -129.42783028


--------------------------------------------------------------------------------------------------------




--------------------------------------- Iteration      1(  23)  ---------------------------------------


    POTLOK:  cpu time    0.0102: real time    0.0102
    SETDIJ:  cpu time    0.0408: real time    0.0408
    EDDIAG:  cpu time    0.0341: real time    0.0347
  RMM-DIIS:  cpu time    0.0462: real time    0.0462
    ORTHCH:  cpu time    0.0043: real time    0.0043
       DOS:  cpu time    0.0004: real time    0.0004
    CHARGE:  cpu time    0.0105: real time    0.0105
    MIXING:  cpu time    0.0010: real time    0.0010
    --------------------------------------------
      LOOP:  cpu time    0.1475: real time    0.1481

 eigenvalue-minimisations  :   701
 total energy-change (2. order) : 0.1810760E+01  (-0.1218125E+00)
 number of electron      63.9999845 magnetization 
 augmentation part        4.4280322 magnetization 

 DIPCOR: dipole corrections for dipol
 direction  3 min pos     3,
 dipolmoment          -0.179913      0.179913     -0.254435 electrons x Angstroem
 Tr[quadrupol]      -412.170604

 energy correction for charged system         0.000000 eV
 dipol+quadrupol energy correction            0.011389 eV
 added-field ion interaction          0.000000 eV  (added to PSCEN)


 Broyden mixing:
  rms(total) = 0.11751E+02    rms(broyden)= 0.11750E+02
  rms(prec ) = 0.11981E+02
  weight for this iteration     100.00

 eigenvalues of (default mixing * dielectric matrix)
  average eigenvalue GAMMA=   0.7616
  1.9862  1.4483  1.4483  1.4283  1.4283  0.8926  0.8926  0.7883  0.5544  0.5544
[...]
 Tr[quadrupol]      -416.215627

 energy correction for charged system         0.000000 eV
 dipol+quadrupol energy correction            0.032512 eV
 added-field ion interaction          0.000000 eV  (added to PSCEN)


 Free energy of the ion-electron system (eV)
  ---------------------------------------------------
  alpha Z        PSCENC =        -0.77270603
  Ewald energy   TEWEN  =      5762.65833230
  -Hartree energ DENC   =     -9069.84132641
  -exchange      EXHF   =         0.00000000
  -V(xc)+E(xc)   XCENC  =      -258.68890876
  PAW double counting   =     77387.54476936   -77111.39102618
  entropy T*S    EENTRO =        -0.16322961
  eigenvalues    EBANDS =      -255.11370520
  atomic energy  EATOM  =      3429.81723989
  Solvation  Ediel_sol  =         0.00000000
  ---------------------------------------------------
  free energy    TOTEN  =      -115.95056064 eV

  energy without entropy =     -115.78733103  energy(sigma->0) =     -115.86894584


--------------------------------------------------------------------------------------------------------




 average (electrostatic) potential at core
  the test charge radii are     1.1212  0.7215  0.9406
  (the norm of the test charge is              1.0000)
       1 -43.9952       2 -43.9254       3 -43.7483       4 -70.7198       5 -44.3278
       6 -44.6950       7 -70.6180       8 -44.9404       9 -44.8926      10 -70.5093
      11 -42.2763      12 -43.3960      13-111.0857      14-111.1298      15-110.9155
      16 -72.7498      17 -96.4627      18 -96.7871      19 -96.1680      20 -95.0706
 
 
 
 E-fermi :   1.7674     XC(G=0):  -5.4190     alpha+bet : -6.3327

 Fermi energy:         1.7674096722

 k-point     1 :       0.0000    0.0000    0.0000
  band No.  band energies     occupation 
      1     -18.6833      2.00000
      2     -17.2013      2.00000
      3     -15.7833      2.00000
      4     -15.0470      2.00000
      5     -14.2479      2.00000
      6      -8.0396      2.00000
      7      -6.8369      2.00000
      8      -6.5052      2.00000
      9      -6.0243      2.00000
     10      -5.1678      2.00000
     11      -5.0505      2.00000
     12      -4.5144      2.00000
     13      -4.1129      2.00000
     14      -3.6646      2.00000
     15      -2.8861      2.00000
     16      -2.5145      2.00000
     17      -1.9728      2.00000
     18      -1.4346      2.00000
     19      -0.8330      2.00000
     20      -0.7751      2.00000
     21      -0.5552      2.00000
     22       0.4441      2.00000
     23       0.9713      2.00000
     24       1.3272      2.00000
     25       1.3880      2.00000
     26       1.5260      1.99936
     27       1.5266      1.99934
     28       1.5758      1.99327
     29       1.6131      1.97088
     30       1.6544      1.88994
     31       1.6854      1.75369
     32       1.7192      1.50442
     33       1.8089      0.55697
     34       1.8737      0.13276
     35       1.9769      0.00305
     36       2.0340      0.00016
     37       2.3581      0.00000
     38       2.7745      0.00000
     39       3.0149      0.00000
     40       3.1076      0.00000
     41       3.6220      0.00000
     42       4.3046      0.00000
     43       4.3419      0.00000
     44       4.8009      0.00000
     45       4.8452      0.00000
     46       5.0984      0.00000
     47       5.2669      0.00000
     48       5.6515      0.00000

 k-point     2 :       0.3333    0.0000    0.0000
  band No.  band energies     occupation 
      1     -18.5952      2.00000
      2     -17.1232      2.00000
      3     -15.7083      2.00000
      4     -15.0249      2.00000
      5     -14.1990      2.00000
      6      -8.0366      2.00000
      7      -7.3684      2.00000
      8      -6.7636      2.00000
      9      -5.7863      2.00000
     10      -5.7179      2.00000
     11      -5.0002      2.00000
     12      -4.7141      2.00000
     13      -4.4016      2.00000
     14      -3.1820      2.00000
     15      -2.9699      2.00000
     16      -2.6991      2.00000
     17      -1.8801      2.00000
     18      -1.6230      2.00000
     19      -1.0567      2.00000
     20      -0.8324      2.00000
     21      -0.5490      2.00000
     22       0.2706      2.00000
     23       0.9903      2.00000
     24       1.0590      2.00000
     25       1.4539      1.99999
     26       1.5186      1.99957
     27       1.5774      1.99279
     28       1.6128      1.97126
     29       1.6452      1.91619
     30       1.6648      1.85343
     31       1.6804      1.78145
     32       1.7315      1.38872
     33       1.7563      1.12433
     34       1.9047      0.05215
     35       2.0159      0.00044
     36       2.2004      0.00000
     37       2.3976      0.00000
     38       2.7515      0.00000
     39       2.8729      0.00000
     40       3.4514      0.00000
     41       4.2832      0.00000
     42       4.5887      0.00000
     43       4.8900      0.00000
     44       5.0301      0.00000
     45       5.2333      0.00000
     46       5.4010      0.00000
     47       5.7660      0.00000
     48       7.5178      0.00000

 k-point     3 :       0.0000    0.3333    0.0000
  band No.  band energies     occupation 
      1     -18.6530      2.00000
      2     -17.2444      2.00000
      3     -15.7963      2.00000
      4     -15.0611      2.00000
      5     -14.2044      2.00000
      6      -8.0495      2.00000
      7      -7.2095      2.00000
      8      -6.5084      2.00000
      9      -5.4115      2.00000
     10      -5.1671      2.00000
     11      -5.0555      2.00000
     12      -4.5352      2.00000
     13      -4.1192      2.00000
     14      -3.2527      2.00000
     15      -3.1067      2.00000
     16      -2.5452      2.00000
     17      -2.0996      2.00000
     18      -1.5668      2.00000
     19      -1.1175      2.00000
     20      -0.7537      2.00000
     21      -0.6353      2.00000
     22       0.1482      2.00000
     23       0.6890      2.00000
     24       1.3325      2.00000
     25       1.4657      1.99998
     26       1.5000      1.99984
     27       1.5386      1.99879
     28       1.6062      1.97736
     29       1.6180      1.96536
     30       1.6596      1.87272
     31       1.6757      1.80545
     32       1.7262      1.43961
     33       1.8120      0.52795
     34       1.9439      0.01255
     35       2.0487      0.00007
     36       2.4188      0.00000
     37       2.4714      0.00000
     38       2.6960      0.00000
     39       3.0679      0.00000
     40       3.5324      0.00000
     41       3.9624      0.00000
     42       4.2861      0.00000
     43       4.3768      0.00000
     44       5.0209      0.00000
     45       5.0464      0.00000
     46       5.1458      0.00000
     47       5.4429      0.00000
     48       5.6533      0.00000

 k-point     4 :       0.3333    0.3333    0.0000
  band No.  band energies     occupation 
      1     -18.5672      2.00000
      2     -17.1642      2.00000
      3     -15.7221      2.00000
      4     -15.0281      2.00000
      5     -14.1652      2.00000
      6      -8.0414      2.00000
      7      -7.2710      2.00000
      8      -7.0194      2.00000
      9      -5.9217      2.00000
     10      -5.3567      2.00000
     11      -5.0052      2.00000
     12      -4.7517      2.00000
     13      -4.3839      2.00000
     14      -3.1809      2.00000
     15      -2.9590      2.00000
     16      -2.7911      2.00000
     17      -1.8422      2.00000
     18      -1.5336      2.00000
     19      -0.9724      2.00000
     20      -0.8699      2.00000
     21      -0.5337      2.00000
     22       0.5719      2.00000
     23       0.7673      2.00000
     24       1.0704      2.00000
     25       1.4136      2.00000
     26       1.5105      1.99972
     27       1.5641      1.99597
     28       1.5967      1.98420
     29       1.6245      1.95672
     30       1.6663      1.84719
     31       1.6782      1.79272
     32       1.7101      1.58263
     33       1.7673      1.00123
     34       1.9072      0.04807
     35       2.0106      0.00058
     36       2.1844      0.00000
     37       2.3177      0.00000
     38       2.5183      0.00000
     39       3.0525      0.00000
     40       3.2574      0.00000
     41       4.1799      0.00000
     42       4.5899      0.00000
     43       4.7281      0.00000
     44       4.9236      0.00000
     45       5.4548      0.00000
     46       5.6242      0.00000
     47       5.9045      0.00000
     48       6.1529      0.00000


--------------------------------------------------------------------------------------------------------


 soft charge-density along one line, spin component           1
         0         1         2         3         4         5         6         7         8         9
 total charge-density along one line
 
 pseudopotential strength for first ion, spin component:           1
  1.440   6.482  -0.004   0.011   0.004
  6.482  28.716  -0.012   0.058   0.012
 -0.004  -0.012   5.172  -0.001  -0.003
  0.011   0.058  -0.001   5.175   0.001
  0.004   0.012  -0.003   0.001   5.172
 total augmentation occupancy for first ion, spin component:           1
  1.806   0.011  -0.085   0.199   0.085
  0.011   0.000  -0.001   0.001   0.001
 -0.085  -0.001   0.031  -0.010  -0.008
  0.199   0.001  -0.010   0.049   0.010
  0.085   0.001  -0.008   0.010   0.031


------------------------ aborting loop EDIFF was not reached (unconverged)  ----------------------------


 -----------------------------------------------------------------------------
|                                                                             |
|           W    W    AA    RRRRR   N    N  II  N    N   GGGG   !!!           |
|           W    W   A  A   R    R  NN   N  II  NN   N  G    G  !!!           |
|           W    W  A    A  R    R  N N  N  II  N N  N  G       !!!           |
|           W WW W  AAAAAA  RRRRR   N  N N  II  N  N N  G  GGG   !            |
|           WW  WW  A    A  R   R   N   NN  II  N   NN  G    G                |
|           W    W  A    A  R    R  N    N  II  N    N   GGGG   !!!           |
|                                                                             |
|     The electronic self-consistency was not achieved in the given           |
|     number of steps (NELM). The forces and other quantities evaluated       |
|     might not be reliable so examine the results carefully. If you find     |
|     spurious results, we suggest increasing NELM, if you were close to      |
|     convergence or switching to a different ALGO or adjusting the           |
|     density mixing parameters otherwise.                                    |
|                                                                             |
 -----------------------------------------------------------------------------

    CHARGE:  cpu time    0.0107: real time    0.0107
    FORLOC:  cpu time    0.0008: real time    0.0014
    FORNL :  cpu time    0.0196: real time    0.0214
    STRESS:  cpu time    0.0468: real time    0.0478
    FORCOR:  cpu time    0.0106: real time    0.0114
    FORHAR:  cpu time    0.0035: real time    0.0037
    MIXING:  cpu time    0.0022: real time    0.0022
    OFIELD:  cpu time    0.0005: real time    0.0010

  FORCE on cell =-STRESS in cart. coord.  units (eV):
  Direction    XX          YY          ZZ          XY          YZ          ZX
  --------------------------------------------------------------------------------------
  Alpha Z    -0.80522    -0.80522    -0.80522
  Ewald    7505.82817  7505.82817 -9313.70447  -150.09039  -206.25829   206.25827
  Hartree  8358.19617  8358.19613 -7559.37156  -104.98289  -129.39083   129.39082
  E(xc)    -272.08312  -272.08312  -271.15683    -0.69831    -1.02495     1.02495
  Local  -16844.23401-16844.23395 15892.81810   250.81719   325.76509  -325.76507
  n-local   104.83368   102.35378    94.78801     9.63932     9.58940   -12.26222
  augment   127.45312   127.45312   128.20405    -1.07336    -0.86915     0.86945
  Kinetic  1112.14140  1111.76343  1114.33805    -7.60002    -3.42754     5.57184
  Fock        0.00000     0.00000     0.00000     0.00000     0.00000     0.00000
  -------------------------------------------------------------------------------------
  Total      89.90126    89.90126    85.11013    -3.98828    -5.35198     5.35198
  in kB     280.06820   280.06820   265.14245   -12.42464   -16.67296    16.67296
  external pressure =      275.09 kB  Pullay stress =        0.00 kB


 VOLUME and BASIS-vectors are now :
 -----------------------------------------------------------------------------
  energy-cutoff  :      400.00
  volume of cell :      514.30
      direct lattice vectors                 reciprocal lattice vectors
    -3.151842525 -3.151842525  0.000000000    -0.158637367 -0.158637367  0.000000000
     4.457378445 -4.457378445  0.000000000     0.112173558 -0.112173558 -0.158637367
    12.942660483-12.942660483 18.303685988     0.000000000  0.000000000  0.054633804

  length of vectors
     4.457378445  6.303685050 25.885320966     0.224347116  0.224347116  0.054633804


 FORCES acting on ions
    electron-ion (+dipol)            ewald-force                    non-local-force                 convergence-correction
 -----------------------------------------------------------------------------------------------
   0.553E+01 -.553E+01 0.112E+03   -.364E+01 0.364E+01 -.111E+03   -.211E+01 0.211E+01 -.496E+01   -.526E+00 0.526E+00 -.468E+00
   -.355E+01 0.355E+01 0.903E+02   0.364E+01 -.364E+01 -.913E+02   0.300E+00 -.300E+00 -.292E+01   -.619E-01 0.619E-01 0.806E+00
   -.530E+01 0.530E+01 0.114E+03   0.364E+01 -.364E+01 -.112E+03   0.164E+01 -.164E+01 -.479E+01   0.525E+00 -.525E+00 -.513E+00
   0.427E+01 -.427E+01 0.886E+02   -.364E+01 0.364E+01 -.881E+02   -.100E+01 0.100E+01 -.843E+01   -.560E-01 0.560E-01 0.745E+00
   -.441E+00 0.441E+00 0.245E+02   -.280E-05 -.207E-04 -.265E+02   0.856E-01 -.856E-01 0.235E+00   0.288E+00 -.288E+00 0.140E+01
   -.402E+01 0.402E+01 0.894E+02   0.364E+01 -.364E+01 -.895E+02   0.112E+01 -.112E+01 -.222E+01   0.552E-01 -.552E-01 0.624E+00
   -.827E+00 0.827E+00 0.224E+02   0.866E-05 0.720E-06 -.245E+02   0.329E+00 -.329E+00 -.423E+01   0.384E+00 -.384E+00 0.151E+01
   -.910E+00 0.910E+00 -.429E+02   -.206E-05 -.208E-04 0.417E+02   0.129E+01 -.129E+01 0.188E+01   -.141E-01 0.141E-01 0.655E+00
   0.855E+00 -.855E+00 0.231E+02   0.386E-05 0.196E-04 -.258E+02   -.162E-01 0.162E-01 0.151E+01   -.382E+00 0.382E+00 0.144E+01
   -.922E+00 0.922E+00 -.456E+02   0.791E-05 0.147E-05 0.422E+02   0.122E+02 -.122E+02 0.272E+02   -.889E-02 0.889E-02 0.712E+00
   0.447E+01 -.447E+01 -.100E+03   -.364E+01 0.364E+01 0.100E+03   -.123E+01 0.123E+01 0.375E+01   0.104E+00 -.104E+00 0.132E+00
   -.716E+00 0.716E+00 -.428E+02   0.432E-05 0.192E-04 0.435E+02   -.166E+00 0.166E+00 0.249E+01   0.127E-01 -.127E-01 0.113E+01
   0.228E+02 -.228E+02 0.525E+03   -.218E+02 0.218E+02 -.529E+03   -.182E+01 0.182E+01 0.138E+01   -.541E+00 0.541E+00 0.581E+01
   -.479E+01 0.479E+01 0.134E+03   0.519E-04 0.432E-05 -.147E+03   0.111E+00 -.111E+00 0.384E+01   0.449E+01 -.449E+01 0.131E+02
   -.135E+01 0.135E+01 -.258E+03   0.475E-04 0.880E-05 0.253E+03   -.675E+01 0.675E+01 -.120E+02   -.111E+01 0.111E+01 0.226E+01
   -.199E+02 0.199E+02 -.584E+03   0.218E+02 -.218E+02 0.594E+03   -.475E+01 0.475E+01 -.150E+02   0.145E+01 -.145E+01 0.187E+01
   0.238E+02 -.238E+02 0.623E+03   -.254E+02 0.254E+02 -.630E+03   -.236E+00 0.236E+00 -.458E+01   0.110E+01 -.110E+01 0.591E+01
   0.181E+01 -.181E+01 0.163E+03   -.614E-04 -.419E-05 -.176E+03   0.110E+01 -.110E+01 0.254E+01   -.247E+01 0.247E+01 0.109E+02
   -.101E+01 0.101E+01 -.288E+03   -.602E-04 -.100E-05 0.283E+03   0.299E+00 -.299E+00 -.669E+00   0.346E+00 -.346E+00 0.622E+01
   -.236E+02 0.236E+02 -.691E+03   0.254E+02 -.254E+02 0.693E+03   0.955E+00 -.955E+00 0.279E+01   -.131E+01 0.131E+01 -.499E+00
 -----------------------------------------------------------------------------------------------
   -.375E+01 0.376E+01 -.420E+02   -.107E-13 0.000E+00 0.227E-12   0.141E+01 -.141E+01 -.121E+02   0.227E+01 -.227E+01 0.537E+02
 
 
 POSITION                                       TOTAL-FORCE (eV/Angst)
 -----------------------------------------------------------------------------------
      4.89541     -8.04725      6.00000        -0.730675      0.730675     -4.248806
      7.58567     -7.58567      7.57592         0.324531     -0.324531     -3.109693
      7.12410    -10.27594      6.00000         0.508805     -0.508805     -3.843461
      6.00975     -9.16160      7.57592        -0.417855      0.417855     -7.159327
      8.70002     -8.70002      9.15184        -0.064147      0.064147     -0.314234
      8.23844    -11.39029      7.57592         0.797585     -0.797585     -1.674394
      7.12410    -10.27594      9.15184        -0.109721      0.109721     -4.845584
      9.81436     -9.81436     10.72776         0.366437     -0.366437      1.349491
      9.35279    -12.50463      9.15184         0.459916     -0.459916      0.184429
      8.23844    -11.39029     10.72776        11.317605    -11.317605     24.495307
     10.92871    -10.92871     12.30369        -0.281532      0.281532      4.086297
     10.46713    -13.61897     10.72776        -0.865657      0.865657      4.341719
      6.00975     -9.16160      7.57592        -1.356721      1.356721      3.549128
      7.12410    -10.27594      9.15184        -0.184928      0.184928      4.166078
      8.23844    -11.39029     10.72776        -9.206451      9.206451    -14.521740
      9.35279    -12.50463     12.30369        -1.406056      1.406056     -3.016010
      9.81436     -9.81436      7.57592        -0.754765      0.754765     -4.921139
     10.92871    -10.92871      9.15184         0.451388     -0.451388      0.842341
     12.04305    -12.04305     10.72776        -0.357761      0.357761     -0.069466
     13.15740    -13.15740     12.30369         1.510002     -1.510002      4.709064
 -----------------------------------------------------------------------------------
    total drift:                               -0.065605      0.073122     -0.364230


--------------------------------------------------------------------------------------------------------



  FREE ENERGIE OF THE ION-ELECTRON SYSTEM (eV)
  ---------------------------------------------------
  free  energy   TOTEN  =      -115.95056064 eV

  energy  without entropy=     -115.78733103  energy(sigma->0) =     -115.86894584
 


--------------------------------------------------------------------------------------------------------


    POTLOK:  cpu time    0.0532: real time    0.0534


--------------------------------------------------------------------------------------------------------


     LOOP+:  cpu time   24.6853: real time   25.9429
    4ORBIT:  cpu time    0.0000: real time    0.0000

 total amount of memory used by VASP MPI-rank0    33268. kBytes
=======================================================================

   base      :      30000. kBytes
   nonlr-proj:        883. kBytes
   fftplans  :        760. kBytes
   grid      :       1383. kBytes
   one-center:          6. kBytes
   wavefun   :        236. kBytes
 
  
  
 General timing and accounting informations for this job:
 ========================================================
  
                  Total CPU time used (sec):       25.238
                            User time (sec):       24.183
                          System time (sec):        1.055
                         Elapsed time (sec):       26.681
  
                   Maximum memory used (kb):      109176.
                   Average memory used (kb):          N/A
  
                          Minor page faults:        99442
                          Major page faults:            0
                 Voluntary context switches:         2550
