unknown system                          
           1
    -3.151843   -3.151843    0.000000
     4.457378   -4.457378    0.000000
    12.942660  -12.942660   18.303686
   Na   O    Cl
    12     4     4
Direct configuration=     1
   0.50000017  0.49999983  0.32780283
   0.00000010  0.49999983  0.41390141
   0.50000017  0.99999990  0.32780283
   0.50000017  0.49999983  0.41390141
   0.00000010  0.49999983  0.50000000
   0.50000017  0.99999990  0.41390141
   0.50000017  0.49999983  0.50000000
   0.00000010  0.49999983  0.58609859
   0.50000017  0.99999990  0.50000000
   0.50000017  0.49999983  0.58609859
   0.00000010  0.49999983  0.67219717
   0.50000017  0.99999990  0.58609859
   0.50000017  0.49999983  0.41390141
   0.50000017  0.49999983  0.50000000
   0.50000017  0.49999983  0.58609859
   0.50000017  0.49999983  0.67219717
   0.00000010  0.99999990  0.41390139
   0.00000010  0.99999990  0.49999997
   0.00000010  0.99999990  0.58609856
   0.00000010  0.99999990  0.67219715
