   2   2   0   0
  0.2162251E+02  0.3510040E-09  0.3510040E-09  0.3510040E-09  0.5000000E-15
  1.000000000000000E-004
  CAR 
 unknown system                          
     15.89859582     -4.09462717  301      0.38877869      1.00000000
     -4.095  0.0000E+00  0.0000E+00
     -4.028  0.0000E+00  0.0000E+00
     -3.961  0.0000E+00  0.0000E+00
     -3.895  0.0000E+00  0.0000E+00
     -3.828  0.0000E+00  0.0000E+00
     -3.761  0.0000E+00  0.0000E+00
     -3.695  0.0000E+00  0.0000E+00
     -3.628  0.0000E+00  0.0000E+00
     -3.561  0.0000E+00  0.0000E+00
     -3.495  0.0000E+00  0.0000E+00
     -3.428  0.6215E-15  0.4142E-16
     -3.362  0.5829E-10  0.3885E-11
     -3.295  0.1770E-06  0.1180E-07
     -3.228  0.1982E-04  0.1333E-05
     -3.162  0.1109E-03  0.8721E-05
     -3.095  0.4193E-04  0.1152E-04
     -3.028  0.2192E-05  0.1166E-04
     -2.962  0.1320E-03  0.2046E-04
     -2.895  0.6722E-03  0.6525E-04
     -2.828  0.2322E-03  0.8073E-04
     -2.762  0.7879E-05  0.8125E-04
     -2.695  0.3028E-03  0.1014E-03
     -2.628  0.1357E-02  0.1919E-03
     -2.562  0.4136E-03  0.2195E-03
     -2.495  0.9815E-05  0.2201E-03
     -2.429  0.2290E-03  0.2354E-03
     -2.362  0.9085E-03  0.2959E-03
     -2.295  0.2453E-03  0.3123E-03
     -2.229  0.4834E-05  0.3126E-03
     -2.162  0.1329E-03  0.3214E-03
     -2.095  0.6726E-03  0.3663E-03
     -2.029  0.2309E-03  0.3817E-03
     -1.962  0.1521E-04  0.3827E-03
     -1.895  0.7470E-03  0.4324E-03
     -1.829  0.2725E-02  0.6141E-03
     -1.762  0.6765E-03  0.6591E-03
     -1.695  0.2474E-04  0.6608E-03
     -1.629  0.8895E-03  0.7201E-03
     -1.562  0.2700E-02  0.9000E-03
     -1.496  0.5565E-03  0.9371E-03
     -1.429  0.5842E-05  0.9375E-03
     -1.362  0.2286E-08  0.9375E-03
     -1.296  0.1832E-10  0.9375E-03
     -1.229  0.1846E-06  0.9375E-03
     -1.162  0.6468E-04  0.9418E-03
     -1.096  0.9942E-03  0.1008E-02
     -1.029  0.9659E-03  0.1072E-02
     -0.962  0.5915E-04  0.1076E-02
     -0.896  0.9151E-04  0.1082E-02
     -0.829  0.1824E-02  0.1204E-02
     -0.762  0.2691E-02  0.1383E-02
     -0.696  0.5837E-03  0.1422E-02
     -0.629  0.2913E-04  0.1424E-02
     -0.562  0.6958E-03  0.1471E-02
     -0.496  0.2726E-02  0.1652E-02
     -0.429  0.7268E-03  0.1701E-02
     -0.363  0.3947E-04  0.1703E-02
     -0.296  0.1154E-02  0.1780E-02
     -0.229  0.2591E-02  0.1953E-02
     -0.163  0.3909E-03  0.1979E-02
     -0.096  0.3349E-04  0.1981E-02
     -0.029  0.5936E-03  0.2021E-02
      0.037  0.7604E-03  0.2071E-02
      0.104  0.1484E-02  0.2170E-02
      0.171  0.2417E-02  0.2331E-02
      0.237  0.2701E-03  0.2349E-02
      0.304  0.1224E-04  0.2350E-02
      0.371  0.1073E-02  0.2422E-02
      0.437  0.5385E-02  0.2781E-02
      0.504  0.1834E-02  0.2903E-02
      0.570  0.7906E-04  0.2908E-02
      0.637  0.5466E-03  0.2945E-02
      0.704  0.4297E-03  0.2973E-02
      0.770  0.2071E-04  0.2975E-02
      0.837  0.1107E-06  0.2975E-02
      0.904  0.3655E-04  0.2977E-02
      0.970  0.8225E-03  0.3032E-02
      1.037  0.1125E-02  0.3107E-02
      1.104  0.1726E-03  0.3118E-02
      1.170  0.7633E-03  0.3169E-02
      1.237  0.2459E-02  0.3333E-02
      1.304  0.3359E-02  0.3557E-02
      1.370  0.4044E-02  0.3826E-02
      1.437  0.7570E-03  0.3877E-02
      1.503  0.2284E-03  0.3892E-02
      1.570  0.2321E-02  0.4047E-02
      1.637  0.2453E-02  0.4210E-02
      1.703  0.2768E-02  0.4395E-02
      1.770  0.5662E-03  0.4432E-02
      1.837  0.6051E-05  0.4433E-02
      1.903  0.1155E-05  0.4433E-02
      1.970  0.1744E-03  0.4445E-02
      2.037  0.1271E-02  0.4529E-02
      2.103  0.6198E-03  0.4571E-02
      2.170  0.1740E-04  0.4572E-02
      2.237  0.1967E-07  0.4572E-02
      2.303  0.7448E-12  0.4572E-02
      2.370  0.9255E-18  0.4572E-02
      2.436  0.5368E-16  0.4572E-02
      2.503  0.1867E-10  0.4572E-02
      2.570  0.2048E-06  0.4572E-02
      2.636  0.7771E-04  0.4577E-02
      2.703  0.1283E-02  0.4662E-02
      2.770  0.1330E-02  0.4751E-02
      2.836  0.8721E-04  0.4757E-02
      2.903  0.2511E-06  0.4757E-02
      2.970  0.2511E-10  0.4757E-02
      3.036  0.7959E-16  0.4757E-02
      3.103  0.2523E-14  0.4757E-02
      3.170  0.3137E-09  0.4757E-02
      3.236  0.1255E-05  0.4757E-02
      3.303  0.1823E-03  0.4769E-02
      3.370  0.1281E-02  0.4855E-02
      3.436  0.6033E-03  0.4895E-02
      3.503  0.1979E-04  0.4896E-02
      3.569  0.3194E-03  0.4917E-02
      3.636  0.3350E-02  0.5141E-02
      3.703  0.6703E-02  0.5587E-02
      3.769  0.3439E-02  0.5817E-02
      3.836  0.1072E-02  0.5888E-02
      3.903  0.1270E-02  0.5973E-02
      3.969  0.1675E-03  0.5984E-02
      4.036  0.1066E-05  0.5984E-02
      4.103  0.2452E-09  0.5984E-02
      4.169  0.2046E-14  0.5984E-02
      4.236  0.6309E-10  0.5984E-02
      4.303  0.5362E-06  0.5984E-02
      4.369  0.1594E-03  0.5994E-02
      4.436  0.2115E-02  0.6135E-02
      4.502  0.1798E-02  0.6255E-02
      4.569  0.1207E-03  0.6263E-02
      4.636  0.1816E-02  0.6384E-02
      4.702  0.8956E-02  0.6981E-02
      4.769  0.6664E-02  0.7425E-02
      4.836  0.1268E-02  0.7510E-02
      4.902  0.2656E-04  0.7512E-02
      4.969  0.2894E-07  0.7512E-02
      5.036  0.1181E-11  0.7512E-02
      5.102  0.6406E-12  0.7512E-02
      5.169  0.2154E-07  0.7512E-02
      5.236  0.2409E-04  0.7513E-02
      5.302  0.1064E-02  0.7584E-02
      5.369  0.2636E-02  0.7760E-02
      5.435  0.4406E-03  0.7789E-02
      5.502  0.3643E-05  0.7789E-02
      5.569  0.1106E-08  0.7789E-02
      5.635  0.1279E-13  0.7789E-02
      5.702  0.1802E-09  0.7789E-02
      5.769  0.5415E-06  0.7789E-02
      5.835  0.6005E-04  0.7793E-02
      5.902  0.3329E-03  0.7816E-02
      5.969  0.1249E-03  0.7824E-02
      6.035  0.2979E-05  0.7824E-02
      6.102  0.9975E-04  0.7831E-02
      6.169  0.1492E-02  0.7930E-02
      6.235  0.3024E-02  0.8132E-02
      6.302  0.9204E-03  0.8193E-02
      6.368  0.1331E-03  0.8202E-02
      6.435  0.2275E-02  0.8354E-02
      6.502  0.3095E-02  0.8560E-02
      6.568  0.2346E-02  0.8716E-02
      6.635  0.4681E-02  0.9028E-02
      6.702  0.3911E-02  0.9289E-02
      6.768  0.1660E-02  0.9399E-02
      6.835  0.2014E-02  0.9534E-02
      6.902  0.6174E-02  0.9945E-02
      6.968  0.2799E-02  0.1013E-01
      7.035  0.1085E-03  0.1014E-01
      7.102  0.6852E-06  0.1014E-01
      7.168  0.1100E-03  0.1015E-01
      7.235  0.1371E-02  0.1024E-01
      7.302  0.3099E-02  0.1044E-01
      7.368  0.1606E-02  0.1055E-01
      7.435  0.6624E-04  0.1056E-01
      7.501  0.2863E-03  0.1057E-01
      7.568  0.2447E-02  0.1074E-01
      7.635  0.1387E-02  0.1083E-01
      7.701  0.4619E-04  0.1083E-01
      7.768  0.6292E-07  0.1083E-01
      7.835  0.2890E-11  0.1083E-01
      7.901  0.1474E-12  0.1083E-01
      7.968  0.3704E-08  0.1083E-01
      8.035  0.3141E-05  0.1083E-01
      8.101  0.1284E-03  0.1084E-01
      8.168  0.1233E-02  0.1092E-01
      8.235  0.2681E-02  0.1110E-01
      8.301  0.4654E-03  0.1113E-01
      8.368  0.2816E-04  0.1114E-01
      8.434  0.1682E-02  0.1125E-01
      8.501  0.6722E-02  0.1170E-01
      8.568  0.2825E-02  0.1188E-01
      8.634  0.2095E-03  0.1190E-01
      8.701  0.8475E-04  0.1190E-01
      8.768  0.5794E-03  0.1194E-01
      8.834  0.2742E-02  0.1213E-01
      8.901  0.2459E-02  0.1229E-01
      8.968  0.7140E-03  0.1234E-01
      9.034  0.3758E-03  0.1236E-01
      9.101  0.3303E-02  0.1258E-01
      9.168  0.3724E-02  0.1283E-01
      9.234  0.3994E-02  0.1310E-01
      9.301  0.1102E-02  0.1317E-01
      9.367  0.2591E-04  0.1317E-01
      9.434  0.4834E-05  0.1317E-01
      9.501  0.2469E-03  0.1319E-01
      9.567  0.9749E-03  0.1325E-01
      9.634  0.1039E-02  0.1332E-01
      9.701  0.1069E-02  0.1339E-01
      9.767  0.2707E-02  0.1357E-01
      9.834  0.1079E-02  0.1365E-01
      9.901  0.3040E-02  0.1385E-01
      9.967  0.3830E-02  0.1410E-01
     10.034  0.4258E-02  0.1439E-01
     10.101  0.3495E-02  0.1462E-01
     10.167  0.1432E-02  0.1472E-01
     10.234  0.9479E-04  0.1472E-01
     10.300  0.3448E-06  0.1472E-01
     10.367  0.5072E-10  0.1472E-01
     10.434  0.9693E-07  0.1472E-01
     10.500  0.5973E-04  0.1473E-01
     10.567  0.1529E-02  0.1483E-01
     10.634  0.2358E-02  0.1499E-01
     10.700  0.6859E-03  0.1503E-01
     10.767  0.1185E-02  0.1511E-01
     10.834  0.4229E-03  0.1514E-01
     10.900  0.2047E-03  0.1515E-01
     10.967  0.9021E-03  0.1521E-01
     11.034  0.2975E-03  0.1523E-01
     11.100  0.4710E-03  0.1526E-01
     11.167  0.1529E-02  0.1537E-01
     11.234  0.4655E-02  0.1568E-01
     11.300  0.8879E-02  0.1627E-01
     11.367  0.5038E-02  0.1660E-01
     11.433  0.1266E-02  0.1669E-01
     11.500  0.4123E-04  0.1669E-01
     11.567  0.4059E-06  0.1669E-01
     11.633  0.9139E-04  0.1670E-01
     11.700  0.1343E-02  0.1679E-01
     11.767  0.2576E-02  0.1696E-01
     11.833  0.8315E-03  0.1701E-01
     11.900  0.3371E-04  0.1701E-01
     11.967  0.6013E-03  0.1705E-01
     12.033  0.2542E-02  0.1722E-01
     12.100  0.2158E-02  0.1737E-01
     12.167  0.6008E-03  0.1741E-01
     12.233  0.1381E-02  0.1750E-01
     12.300  0.4887E-02  0.1783E-01
     12.366  0.4846E-02  0.1815E-01
     12.433  0.5876E-02  0.1854E-01
     12.500  0.1713E-02  0.1865E-01
     12.566  0.4423E-04  0.1866E-01
     12.633  0.1058E-03  0.1866E-01
     12.700  0.1072E-02  0.1874E-01
     12.766  0.3744E-02  0.1899E-01
     12.833  0.2269E-02  0.1914E-01
     12.900  0.1024E-03  0.1914E-01
     12.966  0.2149E-06  0.1914E-01
     13.033  0.1393E-08  0.1914E-01
     13.100  0.3295E-05  0.1914E-01
     13.166  0.2987E-03  0.1916E-01
     13.233  0.1893E-02  0.1929E-01
     13.299  0.4909E-02  0.1962E-01
     13.366  0.3146E-02  0.1983E-01
     13.433  0.1708E-03  0.1984E-01
     13.499  0.6029E-06  0.1984E-01
     13.566  0.5121E-04  0.1984E-01
     13.633  0.9231E-03  0.1990E-01
     13.699  0.1035E-02  0.1997E-01
     13.766  0.7535E-04  0.1998E-01
     13.833  0.4970E-04  0.1998E-01
     13.899  0.1072E-03  0.1999E-01
     13.966  0.1558E-04  0.1999E-01
     14.033  0.1099E-06  0.1999E-01
     14.099  0.2821E-10  0.1999E-01
     14.166  0.2330E-15  0.1999E-01
     14.232  0.0000E+00  0.1999E-01
     14.299  0.0000E+00  0.1999E-01
     14.366  0.0000E+00  0.1999E-01
     14.432  0.0000E+00  0.1999E-01
     14.499  0.0000E+00  0.1999E-01
     14.566  0.0000E+00  0.1999E-01
     14.632  0.0000E+00  0.1999E-01
     14.699  0.1928E-19  0.1999E-01
     14.766  0.1990E-13  0.1999E-01
     14.832  0.7271E-09  0.1999E-01
     14.899  0.8813E-06  0.1999E-01
     14.966  0.4193E-04  0.1999E-01
     15.032  0.1109E-03  0.2000E-01
     15.099  0.1982E-04  0.2000E-01
     15.166  0.1770E-06  0.2000E-01
     15.232  0.5829E-10  0.2000E-01
     15.299  0.6216E-15  0.2000E-01
     15.365  0.0000E+00  0.2000E-01
     15.432  0.0000E+00  0.2000E-01
     15.499  0.0000E+00  0.2000E-01
     15.565  0.0000E+00  0.2000E-01
     15.632  0.0000E+00  0.2000E-01
     15.699  0.0000E+00  0.2000E-01
     15.765  0.0000E+00  0.2000E-01
     15.832  0.0000E+00  0.2000E-01
     15.899  0.0000E+00  0.2000E-01
