    2    2  800    1
  0.2162251E+02  0.3510040E-09  0.3510040E-09  0.3510040E-09  0.5000000E-15
  1.000000000000000E-004
  CAR 
 unknown system                          
      2     20      8
 
  0.0000000E+00  0.0000000E+00  0.0000000E+00  0.4629630E-02
    1       -3.185844   1.000000
    2        5.877543   0.000000
    3        5.877543   0.000000
    4        5.877543   0.000000
    5        8.118230   0.000000
    6        8.118230   0.000000
    7       13.851951   0.000000
    8       14.989813   0.000000
 
  0.1666667E+00  0.0000000E+00  0.0000000E+00  0.2777778E-01
    1       -2.921502   1.000000
    2        3.639133   0.000000
    3        6.215730   0.000000
    4        6.215730   0.000000
    5        8.470225   0.000000
    6       10.754386   0.000000
    7       13.635572   0.000000
    8       13.635573   0.000000
 
  0.3333333E+00  0.0000000E+00  0.0000000E+00  0.2777778E-01
    1       -2.121922   1.000000
    2        1.155875   0.000000
    3        7.225515   0.000000
    4        7.225515   0.000000
    5        9.526181   0.000000
    6       11.126619   0.000000
    7       11.126619   0.000000
    8       12.678481   0.000000
 
  0.5000000E+00  0.0000000E+00  0.0000000E+00  0.1388889E-01
    1       -0.769523   1.000000
    2       -0.769523   1.000000
    3        8.885989   0.000000
    4        8.885989   0.000000
    5        8.885989   0.000000
    6        8.885989   0.000000
    7       11.285986   0.000000
    8       11.285986   0.000000
 
  0.1666667E+00  0.1666667E+00  0.0000000E+00  0.5555556E-01
    1       -2.657997   1.000000
    2        3.350695   0.000000
    3        4.753548   0.000000
    4        6.552044   0.000000
    5       10.106892   0.000000
    6       11.694013   0.000000
    7       12.036210   0.000000
    8       13.203896   0.000000
 
  0.3333333E+00  0.1666667E+00  0.0000000E+00  0.1111111E+00
    1       -1.863253   1.000000
    2        1.333264   0.000000
    3        5.324817   0.000000
    4        7.553871   0.000000
    5        9.084372   0.000000
    6       11.263464   0.000000
    7       11.321380   0.000000
    8       13.302121   0.000000
 
  0.5000000E+00  0.1666667E+00  0.0000000E+00  0.5555556E-01
    1       -0.528640   1.000000
    2       -0.528640   1.000000
    3        6.896886   0.000000
    4        6.896886   0.000000
    5        9.188800   0.000000
    6        9.188800   0.000000
    7       12.417389   0.000000
    8       12.417389   0.000000
 
  0.3333333E+00  0.3333333E+00  0.0000000E+00  0.5555556E-01
    1       -1.096366   1.000000
    2        1.318040   0.000000
    3        3.853196   0.000000
    4        6.590767   0.000000
    5        8.520491   0.000000
    6       11.359530   0.000000
    7       11.988538   0.000000
    8       12.740361   0.000000
 
  0.5000000E+00  0.3333333E+00  0.0000000E+00  0.5555556E-01
    1        0.117104   1.000000
    2        0.117104   1.000000
    3        4.660799   0.000000
    4        4.660799   0.000000
    5       10.016250   0.000000
    6       10.016250   0.000000
    7       12.297979   0.000000
    8       12.297979   0.000000
 
  0.5000000E+00  0.5000000E+00  0.0000000E+00  0.1388889E-01
    1        0.631072   0.000000
    2        0.631072   0.000000
    3        3.599615   0.000000
    4        3.599615   0.000000
    5       10.710797   0.000000
    6       10.710797   0.000000
    7       12.181377   0.000000
    8       12.181377   0.000000
 
  0.1666667E+00  0.1666667E+00  0.1666667E+00  0.3703704E-01
    1       -2.394372   1.000000
    2        3.695811   0.000000
    3        3.695811   0.000000
    4        6.207099   0.000000
    5       11.747282   0.000000
    6       11.747282   0.000000
    7       12.059766   0.000000
    8       12.378227   0.000000
 
  0.3333333E+00  0.1666667E+00  0.1666667E+00  0.1111111E+00
    1       -1.601165   1.000000
    2        1.560578   0.000000
    3        4.729389   0.000000
    4        6.875424   0.000000
    5        8.815986   0.000000
    6        9.949432   0.000000
    7       12.269577   0.000000
    8       13.277193   0.000000
 
  0.5000000E+00  0.1666667E+00  0.1666667E+00  0.5555556E-01
    1       -0.275719   1.000000
    2       -0.275719   1.000000
    3        6.443919   0.000000
    4        6.443919   0.000000
    5        8.191645   0.000000
    6        8.191645   0.000000
    7       12.762041   0.000000
    8       12.762041   0.000000
 
  0.3333333E+00  0.3333333E+00  0.1666667E+00  0.1111111E+00
    1       -0.824449   1.000000
    2        1.664775   0.000000
    3        3.659768   0.000000
    4        6.691209   0.000000
    5        7.291915   0.000000
    6        9.874482   0.000000
    7       10.577766   0.000000
    8       12.381649   0.000000
 
  0.5000000E+00  0.3333333E+00  0.1666667E+00  0.1111111E+00
    1        0.410356   0.270833
    2        0.410356   0.270833
    3        4.681213   0.000000
    4        4.681213   0.000000
    5        8.466374   0.000000
    6        8.466374   0.000000
    7       11.239034   0.000000
    8       11.239034   0.000000
 
  0.5000000E+00  0.5000000E+00  0.1666667E+00  0.2777778E-01
    1        0.978164   0.000000
    2        0.978164   0.000000
    3        3.634195   0.000000
    4        3.634195   0.000000
    5        9.219749   0.000000
    6        9.219749   0.000000
    7       10.063118   0.000000
    8       10.063118   0.000000
 
  0.3333333E+00  0.3333333E+00  0.3333333E+00  0.3703704E-01
    1       -0.024829   1.000000
    2        2.703968   0.000000
    3        2.703968   0.000000
    4        6.434075   0.000000
    5        6.836586   0.000000
    6        6.836586   0.000000
    7        9.594211   0.000000
    8       10.938595   0.000000
 
  0.5000000E+00  0.3333333E+00  0.3333333E+00  0.5555556E-01
    1        1.233831   0.000000
    2        1.233831   0.000000
    3        4.431745   0.000000
    4        4.431745   0.000000
    5        6.619606   0.000000
    6        6.619606   0.000000
    7        9.728328   0.000000
    8        9.728328   0.000000
 
  0.5000000E+00  0.5000000E+00  0.3333333E+00  0.2777778E-01
    1        2.018672   0.000000
    2        2.018672   0.000000
    3        3.708844   0.000000
    4        3.708844   0.000000
    5        6.161332   0.000000
    6        6.161332   0.000000
    7        9.111471   0.000000
    8        9.111471   0.000000
 
  0.5000000E+00  0.5000000E+00  0.5000000E+00  0.4629630E-02
    1        3.749378   0.000000
    2        3.749378   0.000000
    3        3.749378   0.000000
    4        3.749378   0.000000
    5        3.749378   0.000000
    6        3.749378   0.000000
    7        8.726240   0.000000
    8        8.726240   0.000000
