 vasp.6.2.1 16May21 (build Dec 23 2021 00:35:04) complex                        
  
 executed on             LinuxIFC date 2023.02.21  00:22:07
 running on  128 total cores
 distrk:  each k-point on  128 cores,    1 groups
 distr:  one band on NCORE=  16 cores,    8 groups


--------------------------------------------------------------------------------------------------------


 INCAR:
   ENCUT = 400.000000
   KSPACING = 0.320000
   SIGMA = 0.050000
   EDIFF = 1.00e-08
   EDIFFG = -1.00e-02
   ALGO = Fast
   GGA = PE
   PREC = Normal
   IBRION = 2
   ISIF = 3
   ISMEAR = 0
   ISPIN = 0
   LMAXMIX = 6
   NELM = 150
   NPAR = 8
   NSW = 800
   NWRITE = 1
   KGAMMA = .TRUE.
   LASPH = .TRUE.
   LCHARG = .FALSE.
   LWAVE = .FALSE.
   LREAL = AUTO

 POTCAR:    PAW_PBE Li 17Jan2003                  
 POTCAR:    PAW_PBE Li 17Jan2003                  
  local pseudopotential read in
  partial core-charges read in
  partial kinetic energy density read in
  atomic valenz-charges read in
  non local Contribution for L=           0  read in
    real space projection operators read in
  non local Contribution for L=           0  read in
    real space projection operators read in
  non local Contribution for L=           1  read in
    real space projection operators read in
    PAW grid and wavefunctions read in
 
   number of l-projection  operators is LMAX  =           3
   number of lm-projection operators is LMMAX =           5
 
 -----------------------------------------------------------------------------
|                                                                             |
|               ----> ADVICE to this user running VASP <----                  |
|                                                                             |
|     You have a (more or less) 'small supercell' and for smaller cells       |
|     it is recommended to use the reciprocal-space projection scheme!        |
|     The real-space optimization is not efficient for small cells and it     |
|     is also less accurate ...                                               |
|     Therefore, set LREAL=.FALSE. in the INCAR file.                         |
|                                                                             |
 -----------------------------------------------------------------------------

 Optimization of the real space projectors (new method)

 maximal supplied QI-value         = 18.33
 optimisation between [QCUT,QGAM] = [ 10.08, 20.35] = [ 28.46,115.93] Ry 
 Optimized for a Real-space Cutoff    1.16 Angstroem

   l    n(q)    QCUT    max X(q) W(low)/X(q) W(high)/X(q)  e(spline) 
   0      7    10.082    33.825    0.44E-03    0.14E-03    0.78E-07
   0      7    10.082     8.944    0.33E-03    0.12E-03    0.56E-07
   1      6    10.082     4.214    0.33E-03    0.37E-03    0.39E-07
  PAW_PBE Li 17Jan2003                  :
 energy of atom  1       EATOM=   -5.3001
 kinetic energy error for atom=    0.0000 (will be added to EATOM!!)
 
 
 POSCAR: Li
  positions in cartesian coordinates
  No initial velocities read in
 exchange correlation table for  LEXCH =        8
   RHO(1)=    0.500       N(1)  =     2000
   RHO(2)=  100.500       N(2)  =     4000
 


--------------------------------------------------------------------------------------------------------


 ion  position               nearest neighbor table
   1  0.000  0.000  0.000-   2 3.04   2 3.04   2 3.04   2 3.04   2 3.04   2 3.04   2 3.04   2 3.04

   2  0.500  0.500  0.500-   1 3.04   1 3.04   1 3.04   1 3.04   1 3.04   1 3.04   1 3.04   1 3.04

 
  LATTYP: Found a simple cubic cell.
 ALAT       =     3.5100400000
  
  Lattice vectors:
  
 A1 = (   3.5100400000,   0.0000000000,   0.0000000000)
 A2 = (   0.0000000000,   3.5100400000,   0.0000000000)
 A3 = (   0.0000000000,   0.0000000000,   3.5100400000)


Analysis of symmetry for initial positions (statically):
=====================================================================
 Subroutine PRICEL returns following result:
 
  LATTYP: Found a body centered cubic cell.
 ALAT       =     3.5100400000
  
  Lattice vectors:
  
 A1 = (   1.7550200000,   1.7550200000,  -1.7550200000)
 A2 = (  -1.7550200000,   1.7550200000,   1.7550200000)
 A3 = (   1.7550200000,  -1.7550200000,   1.7550200000)
 
   2 primitive cells build up your supercell.
 

 Routine SETGRP: Setting up the symmetry group for a 
 simple cubic supercell.


 Subroutine GETGRP returns: Found 48 space group operations
 (whereof 48 operations were pure point group operations)
 out of a pool of 48 trial point group operations.


The static configuration has the point symmetry O_h .


Analysis of symmetry for dynamics (positions and initial velocities):
=====================================================================
 Subroutine PRICEL returns following result:
 
  LATTYP: Found a body centered cubic cell.
 ALAT       =     3.5100400000
  
  Lattice vectors:
  
 A1 = (   1.7550200000,   1.7550200000,  -1.7550200000)
 A2 = (  -1.7550200000,   1.7550200000,   1.7550200000)
 A3 = (   1.7550200000,  -1.7550200000,   1.7550200000)
 
   2 primitive cells build up your supercell.
 

 Routine SETGRP: Setting up the symmetry group for a 
 simple cubic supercell.


 Subroutine GETGRP returns: Found 48 space group operations
 (whereof 48 operations were pure point group operations)
 out of a pool of 48 trial point group operations.


The dynamic configuration has the point symmetry O_h .


 Subroutine INISYM returns: Found 48 space group operations
 (whereof 48 operations are pure point group operations),
 and found     2 'primitive' translations


----------------------------------------------------------------------------------------

                                     Primitive cell                                     

  volume of cell :      21.6225

  direct lattice vectors                    reciprocal lattice vectors
     1.755020000  1.755020000 -1.755020000     0.284897038  0.284897038  0.000000000
    -1.755020000  1.755020000  1.755020000    -0.000000000  0.284897038  0.284897038
     1.755020000 -1.755020000  1.755020000     0.284897038  0.000000000  0.284897038

  length of vectors
     3.039783808  3.039783808  3.039783808     0.402905255  0.402905255  0.402905255

  position of ions in fractional coordinates (direct lattice)
     0.000000000  0.000000000  0.000000000

  ion indices of the primitive-cell ions
   primitive index   ion index
                 1           1

----------------------------------------------------------------------------------------

 
 -----------------------------------------------------------------------------
|                                                                             |
|           W    W    AA    RRRRR   N    N  II  N    N   GGGG   !!!           |
|           W    W   A  A   R    R  NN   N  II  NN   N  G    G  !!!           |
|           W    W  A    A  R    R  N N  N  II  N N  N  G       !!!           |
|           W WW W  AAAAAA  RRRRR   N  N N  II  N  N N  G  GGG   !            |
|           WW  WW  A    A  R   R   N   NN  II  N   NN  G    G                |
|           W    W  A    A  R    R  N    N  II  N    N   GGGG   !!!           |
|                                                                             |
|     The requested file  could not be found or opened for reading            |
|     k-point information. Automatic k-point generation is used as a          |
|     fallback, which may lead to unwanted results.                           |
|                                                                             |
 -----------------------------------------------------------------------------

 

Automatic generation of k-mesh.
 Grid dimensions derived from KSPACING:
 generate k-points for:    6    6    6

 Generating k-lattice:

  Cartesian coordinates                     Fractional coordinates (reciprocal lattice)
     0.047482840  0.000000000  0.000000000     0.166666667  0.000000000  0.000000000
     0.000000000  0.047482840  0.000000000     0.000000000  0.166666667  0.000000000
     0.000000000  0.000000000  0.047482840     0.000000000  0.000000000  0.166666667

  Length of vectors
     0.047482840  0.047482840  0.047482840

  Shift w.r.t. Gamma in fractional coordinates (k-lattice)
     0.000000000  0.000000000  0.000000000

 
 Subroutine IBZKPT returns following result:
 ===========================================
 
 Found     20 irreducible k-points:
 
 Following reciprocal coordinates:
            Coordinates               Weight
  0.000000  0.000000  0.000000      1.000000
  0.166667  0.000000  0.000000      6.000000
  0.333333  0.000000  0.000000      6.000000
  0.500000  0.000000  0.000000      3.000000
  0.166667  0.166667  0.000000     12.000000
  0.333333  0.166667  0.000000     24.000000
  0.500000  0.166667  0.000000     12.000000
  0.333333  0.333333  0.000000     12.000000
  0.500000  0.333333  0.000000     12.000000
  0.500000  0.500000  0.000000      3.000000
  0.166667  0.166667  0.166667      8.000000
  0.333333  0.166667  0.166667     24.000000
  0.500000  0.166667  0.166667     12.000000
  0.333333  0.333333  0.166667     24.000000
  0.500000  0.333333  0.166667     24.000000
  0.500000  0.500000  0.166667      6.000000
  0.333333  0.333333  0.333333      8.000000
  0.500000  0.333333  0.333333     12.000000
  0.500000  0.500000  0.333333      6.000000
  0.500000  0.500000  0.500000      1.000000
 
 Following cartesian coordinates:
            Coordinates               Weight
  0.000000  0.000000  0.000000      1.000000
  0.047483  0.000000  0.000000      6.000000
  0.094966  0.000000  0.000000      6.000000
  0.142449  0.000000  0.000000      3.000000
  0.047483  0.047483  0.000000     12.000000
  0.094966  0.047483  0.000000     24.000000
  0.142449  0.047483  0.000000     12.000000
  0.094966  0.094966  0.000000     12.000000
  0.142449  0.094966  0.000000     12.000000
  0.142449  0.142449  0.000000      3.000000
  0.047483  0.047483  0.047483      8.000000
  0.094966  0.047483  0.047483     24.000000
  0.142449  0.047483  0.047483     12.000000
  0.094966  0.094966  0.047483     24.000000
  0.142449  0.094966  0.047483     24.000000
  0.142449  0.142449  0.047483      6.000000
  0.094966  0.094966  0.094966      8.000000
  0.142449  0.094966  0.094966     12.000000
  0.142449  0.142449  0.094966      6.000000
  0.142449  0.142449  0.142449      1.000000
 


--------------------------------------------------------------------------------------------------------




 Dimension of arrays:
   k-points           NKPTS =     20   k-points in BZ     NKDIM =     20   number of bands    NBANDS=      8
   number of dos      NEDOS =    301   number of ions     NIONS =      2
   non local maximal  LDIM  =      3   non local SUM 2l+1 LMDIM =      5
   total plane-waves  NPLWV =   5832
   max r-space proj   IRMAX =    923   max aug-charges    IRDMAX=   4514
   dimension x,y,z NGX =    18 NGY =   18 NGZ =   18
   dimension x,y,z NGXF=    36 NGYF=   36 NGZF=   36
   support grid    NGXF=    36 NGYF=   36 NGZF=   36
   ions per type =               2
   NGX,Y,Z   is equivalent  to a cutoff of   8.53,  8.53,  8.53 a.u.
   NGXF,Y,Z  is equivalent  to a cutoff of  17.05, 17.05, 17.05 a.u.

 SYSTEM =  unknown system                          
 POSCAR =  Li                                      

 Startparameter for this run:
   NWRITE =      1    write-flag & timer
   PREC   = normal    normal or accurate (medium, high low for compatibility)
   ISTART =      0    job   : 0-new  1-cont  2-samecut
   ICHARG =      2    charge: 1-file 2-atom 10-const
   ISPIN  =      1    spin polarized calculation?
   LNONCOLLINEAR =      F non collinear calculations
   LSORBIT =      F    spin-orbit coupling
   INIWAV =      1    electr: 0-lowe 1-rand  2-diag
   LASPH  =      T    aspherical Exc in radial PAW
 Electronic Relaxation 1
   ENCUT  =  400.0 eV  29.40 Ry    5.42 a.u.   5.72  5.72  5.72*2*pi/ulx,y,z
   ENINI  =  400.0     initial cutoff
   ENAUG  =  331.6 eV  augmentation charge cutoff
   NELM   =    150;   NELMIN=  2; NELMDL= -5     # of ELM steps 
   EDIFF  = 0.1E-07   stopping-criterion for ELM
   LREAL  =      T    real-space projection
   NLSPLINE    = F    spline interpolate recip. space projectors
   LCOMPAT=      F    compatible to vasp.4.4
   GGA_COMPAT  = T    GGA compatible to vasp.4.4-vasp.4.6
   LMAXPAW     = -100 max onsite density
   LMAXMIX     =    6 max onsite mixed and CHGCAR
   VOSKOWN=      0    Vosko Wilk Nusair interpolation
   ROPT   =   -0.00050
 Ionic relaxation
   EDIFFG = -.1E-01   stopping-criterion for IOM
   NSW    =    800    number of steps for IOM
   NBLOCK =      1;   KBLOCK =    800    inner block; outer block 
   IBRION =      2    ionic relax: 0-MD 1-quasi-New 2-CG
   NFREE  =      1    steps in history (QN), initial steepest desc. (CG)
   ISIF   =      3    stress and relaxation
   IWAVPR =     11    prediction:  0-non 1-charg 2-wave 3-comb
   ISYM   =      2    0-nonsym 1-usesym 2-fastsym
   LCORR  =      T    Harris-Foulkes like correction to forces

   POTIM  = 0.5000    time-step for ionic-motion
   TEIN   =    0.0    initial temperature
   TEBEG  =    0.0;   TEEND  =   0.0 temperature during run
   SMASS  =  -3.00    Nose mass-parameter (am)
   estimated Nose-frequenzy (Omega)   =  0.10E-29 period in steps = 0.13E+47 mass=  -0.282E-27a.u.
   SCALEE = 1.0000    scale energy and forces
   NPACO  =    256;   APACO  = 16.0  distance and # of slots for P.C.
   PSTRESS=    0.0 pullay stress

  Mass of Ions in am
   POMASS =   7.01
  Ionic Valenz
   ZVAL   =   1.00
  Atomic Wigner-Seitz radii
   RWIGS  =  -1.00
  virtual crystal weights 
   VCA    =   1.00
   NELECT =       2.0000    total number of electrons
   NUPDOWN=      -1.0000    fix difference up-down

 DOS related values:
   EMIN   =  10.00;   EMAX   =-10.00  energy-range for DOS
   EFERMI =   0.00
   ISMEAR =     0;   SIGMA  =   0.05  broadening in eV -4-tet -1-fermi 0-gaus

 Electronic relaxation 2 (details)
   IALGO  =     68    algorithm
   LDIAG  =      T    sub-space diagonalisation (order eigenvalues)
   LSUBROT=      F    optimize rotation matrix (better conditioning)
   TURBO    =      0    0=normal 1=particle mesh
   IRESTART =      0    0=no restart 2=restart with 2 vectors
   NREBOOT  =      0    no. of reboots
   NMIN     =      0    reboot dimension
   EREF     =   0.00    reference energy to select bands
   IMIX   =      4    mixing-type and parameters
     AMIX     =   0.40;   BMIX     =  1.00
     AMIX_MAG =   1.60;   BMIX_MAG =  1.00
     AMIN     =   0.10
     WC   =   100.;   INIMIX=   1;  MIXPRE=   1;  MAXMIX= -45

 Intra band minimization:
   WEIMIN = 0.0010     energy-eigenvalue tresh-hold
   EBREAK =  0.31E-09  absolut break condition
   DEPER  =   0.30     relativ break condition  

   TIME   =   0.40     timestep for ELM

  volume/ion in A,a.u.               =      21.62       145.92
  Fermi-wavevector in a.u.,A,eV,Ry     =   0.587633  1.110465  4.698261  0.345312
  Thomas-Fermi vector in A             =   1.634583
 
 Write flags
   LWAVE        =      F    write WAVECAR
   LDOWNSAMPLE  =      F    k-point downsampling of WAVECAR
   LCHARG       =      F    write CHGCAR
   LVTOT        =      F    write LOCPOT, total local potential
   LVHAR        =      F    write LOCPOT, Hartree potential only
   LELF         =      F    write electronic localiz. function (ELF)
   LORBIT       =      0    0 simple, 1 ext, 2 COOP (PROOUT), +10 PAW based schemes


 Dipole corrections
   LMONO  =      F    monopole corrections only (constant potential shift)
   LDIPOL =      F    correct potential (dipole corrections)
   IDIPOL =      0    1-x, 2-y, 3-z, 4-all directions 
   EPSILON=  1.0000000 bulk dielectric constant

 Exchange correlation treatment:
   GGA     =    PE    GGA type
   LEXCH   =     8    internal setting for exchange type
   VOSKOWN=      0    Vosko Wilk Nusair interpolation
   LHFCALC =     F    Hartree Fock is set to
   LHFONE  =     F    Hartree Fock one center treatment
   AEXX    =    0.0000 exact exchange contribution

 Linear response parameters
   LEPSILON=     F    determine dielectric tensor
   LRPA    =     F    only Hartree local field effects (RPA)
   LNABLA  =     F    use nabla operator in PAW spheres
   LVEL    =     F    velocity operator in full k-point grid
   LINTERFAST=   F  fast interpolation
   KINTER  =     0    interpolate to denser k-point grid
   CSHIFT  =0.1000    complex shift for real part using Kramers Kronig
   OMEGAMAX=  -1.0    maximum frequency
   DEG_THRESHOLD= 0.2000000E-02 threshold for treating states as degnerate
   RTIME   =   -0.100 relaxation time in fs
  (WPLASMAI=    0.000 imaginary part of plasma frequency in eV, 0.658/RTIME)
   DFIELD  = 0.0000000 0.0000000 0.0000000 field for delta impulse in time
 
 Orbital magnetization related:
   ORBITALMAG=     F  switch on orbital magnetization
   LCHIMAG   =     F  perturbation theory with respect to B field
   DQ        =  0.001000  dq finite difference perturbation B field
   LLRAUG    =     F  two centre corrections for induced B field



--------------------------------------------------------------------------------------------------------


 conjugate gradient relaxation of ions
 charge density and potential will be updated during run
 non-spin polarized calculation
 RMM-DIIS sequential band-by-band and
  variant of blocked Davidson during initial phase
 perform sub-space diagonalisation
    before iterative eigenvector-optimisation
 modified Broyden-mixing scheme, WC =      100.0
 initial mixing is a Kerker type mixing with AMIX =  0.4000 and BMIX =      1.0000
 Hartree-type preconditioning will be used
 using additional bands            7
 real space projection scheme for non local part
 use partial core corrections
 calculate Harris-corrections to forces 
   (improved forces if not selfconsistent)
 use gradient corrections 
 use of overlap-Matrix (Vanderbilt PP)
 Gauss-broadening in eV      SIGMA  =   0.05


--------------------------------------------------------------------------------------------------------


  energy-cutoff  :      400.00
  volume of cell :       43.25
      direct lattice vectors                 reciprocal lattice vectors
     3.510040000  0.000000000  0.000000000     0.284897038  0.000000000  0.000000000
     0.000000000  3.510040000  0.000000000     0.000000000  0.284897038  0.000000000
     0.000000000  0.000000000  3.510040000     0.000000000  0.000000000  0.284897038

  length of vectors
     3.510040000  3.510040000  3.510040000     0.284897038  0.284897038  0.284897038


 
 k-points in units of 2pi/SCALE and weight: read from INCAR                         
   0.00000000  0.00000000  0.00000000       0.005
   0.04748284  0.00000000  0.00000000       0.028
   0.09496568  0.00000000  0.00000000       0.028
   0.14244852  0.00000000  0.00000000       0.014
   0.04748284  0.04748284  0.00000000       0.056
   0.09496568  0.04748284  0.00000000       0.111
   0.14244852  0.04748284  0.00000000       0.056
   0.09496568  0.09496568  0.00000000       0.056
   0.14244852  0.09496568  0.00000000       0.056
   0.14244852  0.14244852  0.00000000       0.014
   0.04748284  0.04748284  0.04748284       0.037
   0.09496568  0.04748284  0.04748284       0.111
   0.14244852  0.04748284  0.04748284       0.056
   0.09496568  0.09496568  0.04748284       0.111
   0.14244852  0.09496568  0.04748284       0.111
   0.14244852  0.14244852  0.04748284       0.028
   0.09496568  0.09496568  0.09496568       0.037
   0.14244852  0.09496568  0.09496568       0.056
   0.14244852  0.14244852  0.09496568       0.028
   0.14244852  0.14244852  0.14244852       0.005
 
 k-points in reciprocal lattice and weights: read from INCAR                         
   0.00000000  0.00000000  0.00000000       0.005
   0.16666667  0.00000000  0.00000000       0.028
   0.33333333  0.00000000  0.00000000       0.028
   0.50000000  0.00000000  0.00000000       0.014
   0.16666667  0.16666667  0.00000000       0.056
   0.33333333  0.16666667  0.00000000       0.111
   0.50000000  0.16666667  0.00000000       0.056
   0.33333333  0.33333333  0.00000000       0.056
   0.50000000  0.33333333  0.00000000       0.056
   0.50000000  0.50000000  0.00000000       0.014
   0.16666667  0.16666667  0.16666667       0.037
   0.33333333  0.16666667  0.16666667       0.111
   0.50000000  0.16666667  0.16666667       0.056
   0.33333333  0.33333333  0.16666667       0.111
   0.50000000  0.33333333  0.16666667       0.111
   0.50000000  0.50000000  0.16666667       0.028
   0.33333333  0.33333333  0.33333333       0.037
   0.50000000  0.33333333  0.33333333       0.056
   0.50000000  0.50000000  0.33333333       0.028
   0.50000000  0.50000000  0.50000000       0.005
 
 position of ions in fractional coordinates (direct lattice) 
   0.00000000  0.00000000  0.00000000
   0.50000000  0.50000000  0.50000000
 
 position of ions in cartesian coordinates  (Angst):
   0.00000000  0.00000000  0.00000000
   1.75502000  1.75502000  1.75502000
 


--------------------------------------------------------------------------------------------------------


 k-point   1 :   0.0000 0.0000 0.0000  plane waves:     751
 k-point   2 :   0.1667 0.0000 0.0000  plane waves:     779
 k-point   3 :   0.3333 0.0000 0.0000  plane waves:     792
 k-point   4 :   0.5000 0.0000 0.0000  plane waves:     804
 k-point   5 :   0.1667 0.1667 0.0000  plane waves:     782
 k-point   6 :   0.3333 0.1667 0.0000  plane waves:     782
 k-point   7 :   0.5000 0.1667 0.0000  plane waves:     794
 k-point   8 :   0.3333 0.3333 0.0000  plane waves:     786
 k-point   9 :   0.5000 0.3333 0.0000  plane waves:     792
 k-point  10 :   0.5000 0.5000 0.0000  plane waves:     784
 k-point  11 :   0.1667 0.1667 0.1667  plane waves:     802
 k-point  12 :   0.3333 0.1667 0.1667  plane waves:     781
 k-point  13 :   0.5000 0.1667 0.1667  plane waves:     782
 k-point  14 :   0.3333 0.3333 0.1667  plane waves:     786
 k-point  15 :   0.5000 0.3333 0.1667  plane waves:     790
 k-point  16 :   0.5000 0.5000 0.1667  plane waves:     788
 k-point  17 :   0.3333 0.3333 0.3333  plane waves:     789
 k-point  18 :   0.5000 0.3333 0.3333  plane waves:     776
 k-point  19 :   0.5000 0.5000 0.3333  plane waves:     780
 k-point  20 :   0.5000 0.5000 0.5000  plane waves:     840

 maximum and minimum number of plane-waves per node :        60       36

 maximum number of plane-waves:       840
 maximum index in each direction: 
   IXMAX=    5   IYMAX=    5   IZMAX=    5
   IXMIN=   -6   IYMIN=   -6   IZMIN=   -6


 real space projection operators:
  total allocation   :         66.17 KBytes
  max/ min on nodes  :          8.05          3.16


 parallel 3D FFT for wavefunctions:
    minimum data exchange during FFTs selected (reduces bandwidth)
 parallel 3D FFT for charge:
    minimum data exchange during FFTs selected (reduces bandwidth)


 total amount of memory used by VASP MPI-rank0    30238. kBytes
=======================================================================

   base      :      30000. kBytes
   nonlr-proj:         38. kBytes
   fftplans  :         88. kBytes
   grid      :         91. kBytes
   one-center:          1. kBytes
   wavefun   :         20. kBytes
 
     INWAV:  cpu time    0.0000: real time    0.0000
 Broyden mixing: mesh for mixing (old mesh)
   NGX = 11   NGY = 11   NGZ = 11
  (NGX  = 36   NGY  = 36   NGZ  = 36)
  gives a total of   1331 points

 initial charge density was supplied:
 charge density of overlapping atoms calculated
 number of electron       2.0000000 magnetization 
 keeping initial charge density in first step


--------------------------------------------------------------------------------------------------------


 Maximum index for non-local projection operator          206
 Maximum index for augmentation-charges          305 (set IRDMAX)


--------------------------------------------------------------------------------------------------------


 First call to EWALD:  gamma=   0.505
 Maximum number of real-space cells 3x 3x 3
 Maximum number of reciprocal cells 3x 3x 3

    FEWALD:  cpu time    0.0015: real time    0.0015


--------------------------------------- Iteration      1(   1)  ---------------------------------------


    POTLOK:  cpu time    0.0072: real time    0.0091
    SETDIJ:  cpu time    0.0402: real time    0.0406
     EDDAV:  cpu time    0.0581: real time    0.0603
       DOS:  cpu time    0.0016: real time    0.0022
    --------------------------------------------
      LOOP:  cpu time    0.1071: real time    0.1122

 eigenvalue-minimisations  :   328
 total energy-change (2. order) :-0.3403483E+01  (-0.4981312E+02)
 number of electron       2.0000000 magnetization 
 augmentation part        2.0000000 magnetization 

 Free energy of the ion-electron system (eV)
  ---------------------------------------------------
  alpha Z        PSCENC =         0.24231200
  Ewald energy   TEWEN  =       -14.92979778
  -Hartree energ DENC   =        -0.00816134
  -exchange      EXHF   =         0.00000000
  -V(xc)+E(xc)   XCENC  =        -8.59261182
  PAW double counting   =        15.32523118       -4.20845459
  entropy T*S    EENTRO =        -0.00395732
  eigenvalues    EBANDS =        -1.82822071
  atomic energy  EATOM  =        10.60017774
  Solvation  Ediel_sol  =         0.00000000
  ---------------------------------------------------
  free energy    TOTEN  =        -3.40348265 eV

  energy without entropy =       -3.39952533  energy(sigma->0) =       -3.40150399


--------------------------------------------------------------------------------------------------------




--------------------------------------- Iteration      1(   2)  ---------------------------------------


     EDDAV:  cpu time    0.0554: real time    0.0566
       DOS:  cpu time    0.0003: real time    0.0003
    --------------------------------------------
      LOOP:  cpu time    0.0557: real time    0.0569

 eigenvalue-minimisations  :   424
 total energy-change (2. order) :-0.3876887E+00  (-0.3820990E+00)
 number of electron       2.0000000 magnetization 
 augmentation part        2.0000000 magnetization 

 Free energy of the ion-electron system (eV)
  ---------------------------------------------------
  alpha Z        PSCENC =         0.24231200
  Ewald energy   TEWEN  =       -14.92979778
  -Hartree energ DENC   =        -0.00816134
  -exchange      EXHF   =         0.00000000
  -V(xc)+E(xc)   XCENC  =        -8.59261182
  PAW double counting   =        15.32523118       -4.20845459
  entropy T*S    EENTRO =        -0.00505749
  eigenvalues    EBANDS =        -2.21480926
  atomic energy  EATOM  =        10.60017774
  Solvation  Ediel_sol  =         0.00000000
  ---------------------------------------------------
  free energy    TOTEN  =        -3.79117137 eV

  energy without entropy =       -3.78611388  energy(sigma->0) =       -3.78864262


--------------------------------------------------------------------------------------------------------




--------------------------------------- Iteration      1(   3)  ---------------------------------------


     EDDAV:  cpu time    0.0470: real time    0.0470
       DOS:  cpu time    0.0003: real time    0.0003
    --------------------------------------------
      LOOP:  cpu time    0.0473: real time    0.0473

 eigenvalue-minimisations  :   368
 total energy-change (2. order) :-0.3411251E-02  (-0.3265466E-02)
 number of electron       2.0000000 magnetization 
 augmentation part        2.0000000 magnetization 

 Free energy of the ion-electron system (eV)
  ---------------------------------------------------
  alpha Z        PSCENC =         0.24231200
  Ewald energy   TEWEN  =       -14.92979778
  -Hartree energ DENC   =        -0.00816134
  -exchange      EXHF   =         0.00000000
  -V(xc)+E(xc)   XCENC  =        -8.59261182
  PAW double counting   =        15.32523118       -4.20845459
  entropy T*S    EENTRO =        -0.00520360
  eigenvalues    EBANDS =        -2.21807440
  atomic energy  EATOM  =        10.60017774
  Solvation  Ediel_sol  =         0.00000000
  ---------------------------------------------------
  free energy    TOTEN  =        -3.79458262 eV

  energy without entropy =       -3.78937902  energy(sigma->0) =       -3.79198082


--------------------------------------------------------------------------------------------------------




--------------------------------------- Iteration      1(   4)  ---------------------------------------


     EDDAV:  cpu time    0.0547: real time    0.0547
       DOS:  cpu time    0.0003: real time    0.0003
    --------------------------------------------
      LOOP:  cpu time    0.0550: real time    0.0550

 eigenvalue-minimisations  :   432
 total energy-change (2. order) :-0.4012972E-05  (-0.4012821E-05)
 number of electron       2.0000000 magnetization 
 augmentation part        2.0000000 magnetization 

 Free energy of the ion-electron system (eV)
  ---------------------------------------------------
  alpha Z        PSCENC =         0.24231200
  Ewald energy   TEWEN  =       -14.92979778
  -Hartree energ DENC   =        -0.00816134
  -exchange      EXHF   =         0.00000000
  -V(xc)+E(xc)   XCENC  =        -8.59261182
  PAW double counting   =        15.32523118       -4.20845459
  entropy T*S    EENTRO =        -0.00520360
  eigenvalues    EBANDS =        -2.21807841
  atomic energy  EATOM  =        10.60017774
  Solvation  Ediel_sol  =         0.00000000
  ---------------------------------------------------
  free energy    TOTEN  =        -3.79458663 eV

  energy without entropy =       -3.78938303  energy(sigma->0) =       -3.79198483


--------------------------------------------------------------------------------------------------------




--------------------------------------- Iteration      1(   5)  ---------------------------------------


     EDDAV:  cpu time    0.0455: real time    0.0455
       DOS:  cpu time    0.0003: real time    0.0003
    CHARGE:  cpu time    0.0048: real time    0.0055
    MIXING:  cpu time    0.0035: real time    0.0053
    --------------------------------------------
      LOOP:  cpu time    0.0541: real time    0.0565

 eigenvalue-minimisations  :   360
 total energy-change (2. order) :-0.1218083E-07  (-0.1214707E-07)
 number of electron       2.0000000 magnetization 
 augmentation part        0.0144071 magnetization 

 Broyden mixing:
  rms(total) = 0.18096E-01    rms(broyden)= 0.18096E-01
  rms(prec ) = 0.56034E-01
  weight for this iteration     100.00

 Free energy of the ion-electron system (eV)
  ---------------------------------------------------
  alpha Z        PSCENC =         0.24231200
  Ewald energy   TEWEN  =       -14.92979778
  -Hartree energ DENC   =        -0.00816134
  -exchange      EXHF   =         0.00000000
  -V(xc)+E(xc)   XCENC  =        -8.59261182
  PAW double counting   =        15.32523118       -4.20845459
  entropy T*S    EENTRO =        -0.00520360
  eigenvalues    EBANDS =        -2.21807843
  atomic energy  EATOM  =        10.60017774
  Solvation  Ediel_sol  =         0.00000000
  ---------------------------------------------------
  free energy    TOTEN  =        -3.79458665 eV

  energy without entropy =       -3.78938304  energy(sigma->0) =       -3.79198484


--------------------------------------------------------------------------------------------------------




--------------------------------------- Iteration      1(   6)  ---------------------------------------


    POTLOK:  cpu time    0.0034: real time    0.0034
    SETDIJ:  cpu time    0.0380: real time    0.0390
    EDDIAG:  cpu time    0.0998: real time    0.1046
  RMM-DIIS:  cpu time    0.0085: real time    0.0087
    ORTHCH:  cpu time    0.0059: real time    0.0059
       DOS:  cpu time    0.0004: real time    0.0003
    CHARGE:  cpu time    0.0014: real time    0.0014
    MIXING:  cpu time    0.0020: real time    0.0020
    --------------------------------------------
      LOOP:  cpu time    0.1594: real time    0.1654

 eigenvalue-minimisations  :   320
 total energy-change (2. order) : 0.1320496E-02  (-0.6191774E-05)
 number of electron       2.0000000 magnetization 
 augmentation part        0.0144378 magnetization 

 Broyden mixing:
  rms(total) = 0.11872E-01    rms(broyden)= 0.11872E-01
  rms(prec ) = 0.37013E-01
  weight for this iteration     100.00

 eigenvalues of (default mixing * dielectric matrix)
  average eigenvalue GAMMA=   2.8917
  2.8917

 Free energy of the ion-electron system (eV)
  ---------------------------------------------------
  alpha Z        PSCENC =         0.24231200
  Ewald energy   TEWEN  =       -14.92979778
  -Hartree energ DENC   =        -0.01228204
  -exchange      EXHF   =         0.00000000
  -V(xc)+E(xc)   XCENC  =        -8.57783098
  PAW double counting   =        16.15905758       -5.04639696
  entropy T*S    EENTRO =        -0.00520360
  eigenvalues    EBANDS =        -2.22330211
  atomic energy  EATOM  =        10.60017774
  Solvation  Ediel_sol  =         0.00000000
  ---------------------------------------------------
  free energy    TOTEN  =        -3.79326615 eV

  energy without entropy =       -3.78806255  energy(sigma->0) =       -3.79066435


--------------------------------------------------------------------------------------------------------




--------------------------------------- Iteration      1(   7)  ---------------------------------------


    POTLOK:  cpu time    0.0033: real time    0.0033
    SETDIJ:  cpu time    0.0387: real time    0.0387
    EDDIAG:  cpu time    0.0875: real time    0.0885
  RMM-DIIS:  cpu time    0.0039: real time    0.0039
    ORTHCH:  cpu time    0.0050: real time    0.0050
       DOS:  cpu time    0.0004: real time    0.0004
    CHARGE:  cpu time    0.0014: real time    0.0014
    MIXING:  cpu time    0.0002: real time    0.0002
    --------------------------------------------
      LOOP:  cpu time    0.1404: real time    0.1414

 eigenvalue-minimisations  :   320
 total energy-change (2. order) : 0.8742917E-03  (-0.2208767E-04)
 number of electron       2.0000000 magnetization 
 augmentation part        0.0144901 magnetization 

 Broyden mixing:
  rms(total) = 0.56383E-03    rms(broyden)= 0.56383E-03
  rms(prec ) = 0.59318E-03
  weight for this iteration     100.00

 eigenvalues of (default mixing * dielectric matrix)
  average eigenvalue GAMMA=   2.7356
  2.5239  2.9473

 Free energy of the ion-electron system (eV)
  ---------------------------------------------------
  alpha Z        PSCENC =         0.24231200
  Ewald energy   TEWEN  =       -14.92979778
  -Hartree energ DENC   =        -0.02317555
  -exchange      EXHF   =         0.00000000
  -V(xc)+E(xc)   XCENC  =        -8.54739409
  PAW double counting   =        17.81750011       -6.71453360
  entropy T*S    EENTRO =        -0.00520360
  eigenvalues    EBANDS =        -2.23227709
  atomic energy  EATOM  =        10.60017774
  Solvation  Ediel_sol  =         0.00000000
  ---------------------------------------------------
  free energy    TOTEN  =        -3.79239186 eV

  energy without entropy =       -3.78718826  energy(sigma->0) =       -3.78979006


--------------------------------------------------------------------------------------------------------




--------------------------------------- Iteration      1(   8)  ---------------------------------------


    POTLOK:  cpu time    0.0034: real time    0.0034
    SETDIJ:  cpu time    0.0388: real time    0.0388
    EDDIAG:  cpu time    0.0839: real time    0.0843
  RMM-DIIS:  cpu time    0.0040: real time    0.0039
    ORTHCH:  cpu time    0.0050: real time    0.0050
       DOS:  cpu time    0.0003: real time    0.0003
    CHARGE:  cpu time    0.0015: real time    0.0015
    MIXING:  cpu time    0.0002: real time    0.0002
    --------------------------------------------
      LOOP:  cpu time    0.1370: real time    0.1374

 eigenvalue-minimisations  :   317
 total energy-change (2. order) : 0.2787736E-04  (-0.1911840E-05)
 number of electron       2.0000000 magnetization 
 augmentation part        0.0145001 magnetization 

 Broyden mixing:
  rms(total) = 0.22713E-03    rms(broyden)= 0.22713E-03
  rms(prec ) = 0.25268E-03
  weight for this iteration     100.00

 eigenvalues of (default mixing * dielectric matrix)
  average eigenvalue GAMMA=   1.8420
  2.9470  2.5241  0.0550

 Free energy of the ion-electron system (eV)
  ---------------------------------------------------
  alpha Z        PSCENC =         0.24231200
  Ewald energy   TEWEN  =       -14.92979778
  -Hartree energ DENC   =        -0.02318827
  -exchange      EXHF   =         0.00000000
  -V(xc)+E(xc)   XCENC  =        -8.54736541
  PAW double counting   =        17.67059824       -6.56650428
  entropy T*S    EENTRO =        -0.00520360
  eigenvalues    EBANDS =        -2.23339262
  atomic energy  EATOM  =        10.60017774
  Solvation  Ediel_sol  =         0.00000000
  ---------------------------------------------------
  free energy    TOTEN  =        -3.79236398 eV

  energy without entropy =       -3.78716038  energy(sigma->0) =       -3.78976218


--------------------------------------------------------------------------------------------------------




--------------------------------------- Iteration      1(   9)  ---------------------------------------


    POTLOK:  cpu time    0.0034: real time    0.0034
    SETDIJ:  cpu time    0.0389: real time    0.0389
    EDDIAG:  cpu time    0.0824: real time    0.0832
  RMM-DIIS:  cpu time    0.0040: real time    0.0040
    ORTHCH:  cpu time    0.0050: real time    0.0050
       DOS:  cpu time    0.0004: real time    0.0004
    CHARGE:  cpu time    0.0014: real time    0.0015
    MIXING:  cpu time    0.0002: real time    0.0002
    --------------------------------------------
      LOOP:  cpu time    0.1357: real time    0.1365

 eigenvalue-minimisations  :   316
 total energy-change (2. order) : 0.4970727E-05  (-0.3025874E-06)
 number of electron       2.0000000 magnetization 
 augmentation part        0.0145210 magnetization 

 Broyden mixing:
  rms(total) = 0.54443E-04    rms(broyden)= 0.54443E-04
  rms(prec ) = 0.73918E-04
  weight for this iteration     100.00

 eigenvalues of (default mixing * dielectric matrix)
  average eigenvalue GAMMA=   1.9479
  2.9479  2.5012  1.1712  1.1712

 Free energy of the ion-electron system (eV)
  ---------------------------------------------------
  alpha Z        PSCENC =         0.24231200
  Ewald energy   TEWEN  =       -14.92979778
  -Hartree energ DENC   =        -0.02318348
  -exchange      EXHF   =         0.00000000
  -V(xc)+E(xc)   XCENC  =        -8.54740914
  PAW double counting   =        17.58978070       -6.48501093
  entropy T*S    EENTRO =        -0.00520360
  eigenvalues    EBANDS =        -2.23402452
  atomic energy  EATOM  =        10.60017774
  Solvation  Ediel_sol  =         0.00000000
  ---------------------------------------------------
  free energy    TOTEN  =        -3.79235901 eV

  energy without entropy =       -3.78715541  energy(sigma->0) =       -3.78975721


--------------------------------------------------------------------------------------------------------




--------------------------------------- Iteration      1(  10)  ---------------------------------------


    POTLOK:  cpu time    0.0037: real time    0.0037
    SETDIJ:  cpu time    0.0386: real time    0.0386
    EDDIAG:  cpu time    0.0825: real time    0.0830
  RMM-DIIS:  cpu time    0.0039: real time    0.0039
    ORTHCH:  cpu time    0.0050: real time    0.0050
       DOS:  cpu time    0.0004: real time    0.0004
    CHARGE:  cpu time    0.0015: real time    0.0015
    MIXING:  cpu time    0.0002: real time    0.0002
    --------------------------------------------
      LOOP:  cpu time    0.1357: real time    0.1362

 eigenvalue-minimisations  :   306
 total energy-change (2. order) :-0.5270681E-07  (-0.1163278E-07)
 number of electron       2.0000000 magnetization 
 augmentation part        0.0145235 magnetization 

 Broyden mixing:
  rms(total) = 0.17527E-04    rms(broyden)= 0.17527E-04
  rms(prec ) = 0.20498E-04
  weight for this iteration     100.00

 eigenvalues of (default mixing * dielectric matrix)
  average eigenvalue GAMMA=   1.8761
  2.9465  2.5090  1.6423  1.6423  0.6403

 Free energy of the ion-electron system (eV)
  ---------------------------------------------------
  alpha Z        PSCENC =         0.24231200
  Ewald energy   TEWEN  =       -14.92979778
  -Hartree energ DENC   =        -0.02317721
  -exchange      EXHF   =         0.00000000
  -V(xc)+E(xc)   XCENC  =        -8.54744917
  PAW double counting   =        17.60979889       -6.50504874
  entropy T*S    EENTRO =        -0.00520360
  eigenvalues    EBANDS =        -2.23397118
  atomic energy  EATOM  =        10.60017774
  Solvation  Ediel_sol  =         0.00000000
  ---------------------------------------------------
  free energy    TOTEN  =        -3.79235906 eV

  energy without entropy =       -3.78715546  energy(sigma->0) =       -3.78975726


--------------------------------------------------------------------------------------------------------




--------------------------------------- Iteration      1(  11)  ---------------------------------------


    POTLOK:  cpu time    0.0037: real time    0.0037
    SETDIJ:  cpu time    0.0386: real time    0.0387
    EDDIAG:  cpu time    0.2028: real time    0.3553
  RMM-DIIS:  cpu time    0.0037: real time    0.0037
    ORTHCH:  cpu time    0.0051: real time    0.0051
       DOS:  cpu time    0.0004: real time    0.0004
    --------------------------------------------
      LOOP:  cpu time    0.2543: real time    0.4069

 eigenvalue-minimisations  :   261
 total energy-change (2. order) : 0.8257498E-08  (-0.2094224E-08)
 number of electron       2.0000000 magnetization 
 augmentation part        0.0145235 magnetization 

 Free energy of the ion-electron system (eV)
  ---------------------------------------------------
  alpha Z        PSCENC =         0.24231200
  Ewald energy   TEWEN  =       -14.92979778
  -Hartree energ DENC   =        -0.02317783
  -exchange      EXHF   =         0.00000000
  -V(xc)+E(xc)   XCENC  =        -8.54745438
  PAW double counting   =        17.61425472       -6.50948538
  entropy T*S    EENTRO =        -0.00520360
  eigenvalues    EBANDS =        -2.23398453
  atomic energy  EATOM  =        10.60017774
  Solvation  Ediel_sol  =         0.00000000
  ---------------------------------------------------
  free energy    TOTEN  =        -3.79235905 eV

  energy without entropy =       -3.78715545  energy(sigma->0) =       -3.78975725


--------------------------------------------------------------------------------------------------------




 average (electrostatic) potential at core
  the test charge radii are     0.9748
  (the norm of the test charge is              1.0000)
       1 -30.8293       2 -30.8293
 
 
 
 E-fermi :   0.2449     XC(G=0):  -6.6299     alpha+bet : -6.7924

 Fermi energy:         0.2449435905

 k-point     1 :       0.0000    0.0000    0.0000
  band No.  band energies     occupation 
      1      -3.2521      2.00000
      2       5.5342      0.00000
      3       5.5342      0.00000
      4       5.5342      0.00000
      5       7.7293      0.00000
      6       7.7293      0.00000
      7      12.9668      0.00000
      8      14.2543      0.00000

 k-point     2 :       0.1667    0.0000    0.0000
  band No.  band energies     occupation 
      1      -2.9934      2.00000
      2       3.3827      0.00000
      3       5.8593      0.00000
      4       5.8593      0.00000
      5       8.0682      0.00000
      6      10.2311      0.00000
      7      12.9717      0.00000
      8      12.9720      0.00000

 k-point     3 :       0.3333    0.0000    0.0000
  band No.  band energies     occupation 
      1      -2.2120      2.00000
      2       0.9781      0.00000
      3       6.8300      0.00000
      4       6.8300      0.00000
      5       9.0848      0.00000
      6      10.5748      0.00000
      7      10.5748      0.00000
      8      11.9497      0.00000

 k-point     4 :       0.5000    0.0000    0.0000
  band No.  band energies     occupation 
      1      -0.8933      2.00000
      2      -0.8933      2.00000
      3       8.4252      0.00000
      4       8.4252      0.00000
      5       8.4252      0.00000
      6       8.4252      0.00000
      7      10.7790      0.00000
      8      10.7790      0.00000

 k-point     5 :       0.1667    0.1667    0.0000
  band No.  band energies     occupation 
      1      -2.7355      2.00000
      2       3.1160      0.00000
      3       4.4390      0.00000
      4       6.1826      0.00000
      5       9.6110      0.00000
      6      11.1111      0.00000
      7      11.4855      0.00000
      8      12.5547      0.00000

 k-point     6 :       0.3333    0.1667    0.0000
  band No.  band energies     occupation 
      1      -1.9586      2.00000
      2       1.1562      0.00000
      3       4.9897      0.00000
      4       7.1454      0.00000
      5       8.6056      0.00000
      6      10.7004      0.00000
      7      10.7586      0.00000
      8      12.6442      0.00000

 k-point     7 :       0.5000    0.1667    0.0000
  band No.  band energies     occupation 
      1      -0.6564      2.00000
      2      -0.6564      2.00000
      3       6.5026      0.00000
      4       6.5026      0.00000
      5       8.7153      0.00000
      6       8.7153      0.00000
      7      11.7846      0.00000
      8      11.7846      0.00000

 k-point     8 :       0.3333    0.3333    0.0000
  band No.  band energies     occupation 
      1      -1.2073      2.00000
      2       1.1615      0.00000
      3       3.5374      0.00000
      4       6.1936      0.00000
      5       8.0732      0.00000
      6      10.7873      0.00000
      7      11.3613      0.00000
      8      12.1266      0.00000

 k-point     9 :       0.5000    0.3333    0.0000
  band No.  band energies     occupation 
      1      -0.0171      2.00000
      2      -0.0171      2.00000
      3       4.3227      0.00000
      4       4.3227      0.00000
      5       9.5060      0.00000
      6       9.5060      0.00000
      7      11.6875      0.00000
      8      11.6875      0.00000

 k-point    10 :       0.5000    0.5000    0.0000
  band No.  band energies     occupation 
      1       0.5005      0.00000
      2       0.5005      0.00000
      3       3.2743      0.00000
      4       3.2743      0.00000
      5      10.1646      0.00000
      6      10.1646      0.00000
      7      11.5932      0.00000
      8      11.5932      0.00000

 k-point    11 :       0.1667    0.1667    0.1667
  band No.  band energies     occupation 
      1      -2.4776      2.00000
      2       3.4481      0.00000
      3       3.4481      0.00000
      4       5.8001      0.00000
      5      11.1835      0.00000
      6      11.1835      0.00000
      7      11.4267      0.00000
      8      11.8144      0.00000

 k-point    12 :       0.3333    0.1667    0.1667
  band No.  band energies     occupation 
      1      -1.7022      2.00000
      2       1.3791      0.00000
      3       4.4424      0.00000
      4       6.4344      0.00000
      5       8.3714      0.00000
      6       9.4066      0.00000
      7      11.6677      0.00000
      8      12.5895      0.00000

 k-point    13 :       0.5000    0.1667    0.1667
  band No.  band energies     occupation 
      1      -0.4088      2.00000
      2      -0.4088      2.00000
      3       6.0914      0.00000
      4       6.0914      0.00000
      5       7.7042      0.00000
      6       7.7042      0.00000
      7      12.1337      0.00000
      8      12.1337      0.00000

 k-point    14 :       0.3333    0.3333    0.1667
  band No.  band energies     occupation 
      1      -0.9424      2.00000
      2       1.4952      0.00000
      3       3.3807      0.00000
      4       6.3054      0.00000
      5       6.8332      0.00000
      6       9.3901      0.00000
      7       9.9932      0.00000
      8      11.7747      0.00000

 k-point    15 :       0.5000    0.3333    0.1667
  band No.  band energies     occupation 
      1       0.2665      0.54167
      2       0.2665      0.54167
      3       4.3628      0.00000
      4       4.3628      0.00000
      5       7.9857      0.00000
      6       7.9857      0.00000
      7      10.6733      0.00000
      8      10.6733      0.00000

 k-point    16 :       0.5000    0.5000    0.1667
  band No.  band energies     occupation 
      1       0.8346      0.00000
      2       0.8346      0.00000
      3       3.3252      0.00000
      4       3.3252      0.00000
      5       8.7617      0.00000
      6       8.7617      0.00000
      7       9.4947      0.00000
      8       9.4947      0.00000

 k-point    17 :       0.3333    0.3333    0.3333
  band No.  band energies     occupation 
      1      -0.1630      2.00000
      2       2.4952      0.00000
      3       2.4952      0.00000
      4       5.9757      0.00000
      5       6.4707      0.00000
      6       6.4707      0.00000
      7       8.9903      0.00000
      8      10.3712      0.00000

 k-point    18 :       0.5000    0.3333    0.3333
  band No.  band energies     occupation 
      1       1.0654      0.00000
      2       1.0654      0.00000
      3       4.1576      0.00000
      4       4.1576      0.00000
      5       6.2119      0.00000
      6       6.2119      0.00000
      7       9.1508      0.00000
      8       9.1508      0.00000

 k-point    19 :       0.5000    0.5000    0.3333
  band No.  band energies     occupation 
      1       1.8360      0.00000
      2       1.8360      0.00000
      3       3.4381      0.00000
      4       3.4381      0.00000
      5       5.8217      0.00000
      6       5.8217      0.00000
      7       8.5059      0.00000
      8       8.5059      0.00000

 k-point    20 :       0.5000    0.5000    0.5000
  band No.  band energies     occupation 
      1       3.5014      0.00000
      2       3.5014      0.00000
      3       3.5014      0.00000
      4       3.5014      0.00000
      5       3.5014      0.00000
      6       3.5014      0.00000
      7       8.1001      0.00000
      8       8.1001      0.00000


--------------------------------------------------------------------------------------------------------


 soft charge-density along one line, spin component           1
         0         1         2         3         4         5         6         7         8         9
 total charge-density along one line
 
 pseudopotential strength for first ion, spin component:           1
  1.155   5.297   0.000   0.000  -0.000
  5.297  23.100   0.000   0.000  -0.000
  0.000   0.000  -0.478   0.000  -0.000
  0.000   0.000   0.000  -0.478   0.000
 -0.000  -0.000  -0.000   0.000  -0.478
 total augmentation occupancy for first ion, spin component:           1
  1.044  -0.013   0.000   0.000   0.000
 -0.013   0.000   0.000   0.000   0.000
  0.000   0.000   0.043   0.000   0.000
  0.000   0.000  -0.000   0.043  -0.000
  0.000   0.000   0.000  -0.000   0.043


------------------------ aborting loop because EDIFF is reached ----------------------------------------


    CHARGE:  cpu time    0.0020: real time    0.0020
    FORLOC:  cpu time    0.0002: real time    0.0006
    FORNL :  cpu time    0.0034: real time    0.0043
    STRESS:  cpu time    0.0086: real time    0.0099
    FORCOR:  cpu time    0.0044: real time    0.0051
    FORHAR:  cpu time    0.0017: real time    0.0030
    MIXING:  cpu time    0.0004: real time    0.0004
    OFIELD:  cpu time    0.0005: real time    0.0005

  FORCE on cell =-STRESS in cart. coord.  units (eV):
  Direction    XX          YY          ZZ          XY          YZ          ZX
  --------------------------------------------------------------------------------------
  Alpha Z     0.24231     0.24231     0.24231
  Ewald      -4.97660    -4.97660    -4.97660    -0.00000     0.00000     0.00000
  Hartree     0.00773     0.00773     0.00773    -0.00000    -0.00000    -0.00000
  E(xc)      -3.42902    -3.42902    -3.42902    -0.00000     0.00000     0.00000
  Local       0.26487     0.26487     0.26487     0.00000     0.00000     0.00000
  n-local     2.52312     2.97226     3.09341    -0.14846    -0.09672    -0.07561
  augment     0.12099     0.12099     0.12099     0.00000     0.00000     0.00000
  Kinetic     8.51662     3.93535     1.63554     1.89638     0.90303     0.83384
  Fock        0.00000     0.00000     0.00000     0.00000     0.00000     0.00000
  -------------------------------------------------------------------------------------
  Total      -0.21095    -0.21095    -0.21095     0.00000    -0.00000     0.00000
  in kB      -7.81563    -7.81563    -7.81563     0.00000    -0.00000     0.00000
  external pressure =       -7.82 kB  Pullay stress =        0.00 kB


 VOLUME and BASIS-vectors are now :
 -----------------------------------------------------------------------------
  energy-cutoff  :      400.00
  volume of cell :       43.25
      direct lattice vectors                 reciprocal lattice vectors
     3.510040000  0.000000000  0.000000000     0.284897038  0.000000000  0.000000000
     0.000000000  3.510040000  0.000000000     0.000000000  0.284897038  0.000000000
     0.000000000  0.000000000  3.510040000     0.000000000  0.000000000  0.284897038

  length of vectors
     3.510040000  3.510040000  3.510040000     0.284897038  0.284897038  0.284897038


 FORCES acting on ions
    electron-ion (+dipol)            ewald-force                    non-local-force                 convergence-correction
 -----------------------------------------------------------------------------------------------
   -.435E-15 -.197E-17 -.125E-15   0.593E-17 0.101E-16 -.189E-16   0.000E+00 0.000E+00 0.000E+00   -.205E-17 -.317E-18 0.212E-18
   0.200E-15 0.200E-14 0.308E-15   0.154E-17 0.191E-17 0.294E-16   0.000E+00 0.000E+00 0.000E+00   -.761E-19 0.139E-20 0.904E-19
 -----------------------------------------------------------------------------------------------
   -.235E-15 0.200E-14 0.183E-15   0.747E-17 0.120E-16 0.105E-16   0.000E+00 0.000E+00 0.000E+00   -.212E-17 -.316E-18 0.302E-18
 
 
 POSITION                                       TOTAL-FORCE (eV/Angst)
 -----------------------------------------------------------------------------------
      0.00000      0.00000      0.00000         0.000000      0.000000      0.000000
      1.75502      1.75502      1.75502        -0.000000     -0.000000     -0.000000
 -----------------------------------------------------------------------------------
    total drift:                               -0.000000      0.000000      0.000000


--------------------------------------------------------------------------------------------------------



  FREE ENERGIE OF THE ION-ELECTRON SYSTEM (eV)
  ---------------------------------------------------
  free  energy   TOTEN  =        -3.79235905 eV

  energy  without entropy=       -3.78715545  energy(sigma->0) =       -3.78975725
 


--------------------------------------------------------------------------------------------------------


    POTLOK:  cpu time    0.0431: real time    0.0431


--------------------------------------------------------------------------------------------------------




--------------------------------------------------------------------------------------------------------


    WAVPRE:  cpu time    0.0022: real time    0.0050
    FEWALD:  cpu time    0.0004: real time    0.0006
    GENKIN:  cpu time    0.0005: real time    0.0005

 real space projection operators:
  total allocation   :         66.17 KBytes
  max/ min on nodes  :          8.05          3.16

    ORTHCH:  cpu time    0.0063: real time    0.0064
     LOOP+:  cpu time    1.3977: real time    1.5774


--------------------------------------- Iteration      2(   1)  ---------------------------------------


    POTLOK:  cpu time    0.0089: real time    0.0212
    SETDIJ:  cpu time    0.0390: real time    0.0390
     EDDAV:  cpu time    0.0591: real time    0.0592
       DOS:  cpu time    0.0044: real time    0.0044
    CHARGE:  cpu time    0.0020: real time    0.0064
    MIXING:  cpu time    0.0002: real time    0.0002
    --------------------------------------------
      LOOP:  cpu time    0.1135: real time    0.1304

 eigenvalue-minimisations  :   368
 total energy-change (2. order) :-0.2878559E-02  (-0.1385862E-03)
 number of electron       2.0000000 magnetization 
 augmentation part        0.0147791 magnetization 

  free energy =  -0.379523762100E+01  energy without entropy=  -0.379003401988E+01


--------------------------------------------------------------------------------------------------------




--------------------------------------- Iteration      2(   2)  ---------------------------------------


    POTLOK:  cpu time    0.0035: real time    0.0148
    SETDIJ:  cpu time    0.0426: real time    0.0426
    EDDIAG:  cpu time    0.0887: real time    0.0890
  RMM-DIIS:  cpu time    0.0038: real time    0.0092
    ORTHCH:  cpu time    0.0052: real time    0.0052
       DOS:  cpu time    0.0004: real time    0.0004
    CHARGE:  cpu time    0.0015: real time    0.0015
    MIXING:  cpu time    0.0001: real time    0.0001
    --------------------------------------------
      LOOP:  cpu time    0.1458: real time    0.1628

 eigenvalue-minimisations  :   316
 total energy-change (2. order) : 0.7073850E-06  (-0.8365082E-06)
 number of electron       2.0000000 magnetization 
 augmentation part        0.0147671 magnetization 

 eigenvalues of (default mixing * dielectric matrix)
  average eigenvalue GAMMA=   2.5581
  2.5581

  free energy =  -0.379523691362E+01  energy without entropy=  -0.379003331249E+01


--------------------------------------------------------------------------------------------------------




--------------------------------------- Iteration      2(   3)  ---------------------------------------


    POTLOK:  cpu time    0.0035: real time    0.0035
    SETDIJ:  cpu time    0.0386: real time    0.0386
    EDDIAG:  cpu time    0.0835: real time    0.0840
  RMM-DIIS:  cpu time    0.0040: real time    0.0040
    ORTHCH:  cpu time    0.0057: real time    0.0057
       DOS:  cpu time    0.0004: real time    0.0004
    CHARGE:  cpu time    0.0014: real time    0.0014
    MIXING:  cpu time    0.0002: real time    0.0002
    --------------------------------------------
      LOOP:  cpu time    0.1374: real time    0.1378

 eigenvalue-minimisations  :   320
 total energy-change (2. order) :-0.1344956E-06  (-0.1330339E-06)
 number of electron       2.0000000 magnetization 
 augmentation part        0.0147607 magnetization 

 eigenvalues of (default mixing * dielectric matrix)
  average eigenvalue GAMMA=   2.2188
  1.4339  3.0036

  free energy =  -0.379523704811E+01  energy without entropy=  -0.379003344699E+01


--------------------------------------------------------------------------------------------------------




--------------------------------------- Iteration      2(   4)  ---------------------------------------


    POTLOK:  cpu time    0.0034: real time    0.0034
    SETDIJ:  cpu time    0.0386: real time    0.0386
    EDDIAG:  cpu time    0.0826: real time    0.0831
  RMM-DIIS:  cpu time    0.0038: real time    0.0038
    ORTHCH:  cpu time    0.0052: real time    0.0051
       DOS:  cpu time    0.0004: real time    0.0004
    CHARGE:  cpu time    0.0014: real time    0.0014
    MIXING:  cpu time    0.0002: real time    0.0002
    --------------------------------------------
      LOOP:  cpu time    0.1355: real time    0.1360

 eigenvalue-minimisations  :   284
 total energy-change (2. order) : 0.9345581E-07  (-0.1453534E-07)
 number of electron       2.0000000 magnetization 
 augmentation part        0.0147582 magnetization 

 eigenvalues of (default mixing * dielectric matrix)
  average eigenvalue GAMMA=   2.0920
  0.9376  2.7981  2.5404

  free energy =  -0.379523695466E+01  energy without entropy=  -0.379003335353E+01


--------------------------------------------------------------------------------------------------------




--------------------------------------- Iteration      2(   5)  ---------------------------------------


    POTLOK:  cpu time    0.0034: real time    0.0034
    SETDIJ:  cpu time    0.0389: real time    0.0389
    EDDIAG:  cpu time    0.0824: real time    0.0828
  RMM-DIIS:  cpu time    0.0036: real time    0.0036
    ORTHCH:  cpu time    0.0052: real time    0.0052
       DOS:  cpu time    0.0003: real time    0.0003
    CHARGE:  cpu time    0.0015: real time    0.0015
    MIXING:  cpu time    0.0002: real time    0.0002
    --------------------------------------------
      LOOP:  cpu time    0.1354: real time    0.1358

 eigenvalue-minimisations  :   250
 total energy-change (2. order) : 0.1077623E-06  (-0.5519202E-08)
 number of electron       2.0000000 magnetization 
 augmentation part        0.0147559 magnetization 

 eigenvalues of (default mixing * dielectric matrix)
  average eigenvalue GAMMA=   2.0503
  3.2248  2.5916  1.1228  1.2621

  free energy =  -0.379523684689E+01  energy without entropy=  -0.379003324577E+01


--------------------------------------------------------------------------------------------------------




--------------------------------------- Iteration      2(   6)  ---------------------------------------


    POTLOK:  cpu time    0.0032: real time    0.0032
    SETDIJ:  cpu time    0.0385: real time    0.0386
    EDDIAG:  cpu time    0.0817: real time    0.0832
  RMM-DIIS:  cpu time    0.0030: real time    0.0030
    ORTHCH:  cpu time    0.0049: real time    0.0049
       DOS:  cpu time    0.0004: real time    0.0003
    --------------------------------------------
      LOOP:  cpu time    0.1316: real time    0.1332

 eigenvalue-minimisations  :   136
 total energy-change (2. order) :-0.1992273E-08  (-0.2044490E-09)
 number of electron       2.0000000 magnetization 
 augmentation part        0.0147559 magnetization 

  free energy =  -0.379523684889E+01  energy without entropy=  -0.379003324776E+01


--------------------------------------------------------------------------------------------------------




 average (electrostatic) potential at core
  the test charge radii are     0.9748
  (the norm of the test charge is              1.0000)
       1 -30.7651       2 -30.7651
 
 
 
 E-fermi :   0.2829     XC(G=0):  -6.6627     alpha+bet : -6.8972

 Fermi energy:         0.2828934253

 k-point     1 :       0.0000    0.0000    0.0000
  band No.  band energies     occupation 
      1      -3.2352      2.00000
      2       5.6251      0.00000
      3       5.6251      0.00000
      4       5.6251      0.00000
      5       7.8323      0.00000
      6       7.8323      0.00000
      7      13.2004      0.00000
      8      14.4490      0.00000

 k-point     2 :       0.1667    0.0000    0.0000
  band No.  band energies     occupation 
      1      -2.9750      2.00000
      2       3.4505      0.00000
      3       5.9537      0.00000
      4       5.9537      0.00000
      5       8.1746      0.00000
      6      10.3699      0.00000
      7      13.1475      0.00000
      8      13.1475      0.00000

 k-point     3 :       0.3333    0.0000    0.0000
  band No.  band energies     occupation 
      1      -2.1886      2.00000
      2       1.0250      0.00000
      3       6.9347      0.00000
      4       6.9347      0.00000
      5       9.2016      0.00000
      6      10.7210      0.00000
      7      10.7210      0.00000
      8      12.1425      0.00000

 k-point     4 :       0.5000    0.0000    0.0000
  band No.  band energies     occupation 
      1      -0.8609      2.00000
      2      -0.8609      2.00000
      3       8.5472      0.00000
      4       8.5472      0.00000
      5       8.5472      0.00000
      6       8.5472      0.00000
      7      10.9132      0.00000
      8      10.9132      0.00000

 k-point     5 :       0.1667    0.1667    0.0000
  band No.  band energies     occupation 
      1      -2.7156      2.00000
      2       3.1781      0.00000
      3       4.5222      0.00000
      4       6.2804      0.00000
      5       9.7424      0.00000
      6      11.2655      0.00000
      7      11.6313      0.00000
      8      12.7266      0.00000

 k-point     6 :       0.3333    0.1667    0.0000
  band No.  band energies     occupation 
      1      -1.9338      2.00000
      2       1.2030      0.00000
      3       5.0784      0.00000
      4       7.2535      0.00000
      5       8.7323      0.00000
      6      10.8497      0.00000
      7      10.9077      0.00000
      8      12.8184      0.00000

 k-point     7 :       0.5000    0.1667    0.0000
  band No.  band energies     occupation 
      1      -0.6228      2.00000
      2      -0.6228      2.00000
      3       6.6070      0.00000
      4       6.6070      0.00000
      5       8.8407      0.00000
      6       8.8407      0.00000
      7      11.9522      0.00000
      8      11.9522      0.00000

 k-point     8 :       0.3333    0.3333    0.0000
  band No.  band energies     occupation 
      1      -1.1782      2.00000
      2       1.2029      0.00000
      3       3.6208      0.00000
      4       6.2986      0.00000
      5       8.1916      0.00000
      6      10.9388      0.00000
      7      11.5272      0.00000
      8      12.2892      0.00000

 k-point     9 :       0.5000    0.3333    0.0000
  band No.  band energies     occupation 
      1       0.0183      2.00000
      2       0.0183      2.00000
      3       4.4120      0.00000
      4       4.4120      0.00000
      5       9.6411      0.00000
      6       9.6411      0.00000
      7      11.8491      0.00000
      8      11.8491      0.00000

 k-point    10 :       0.5000    0.5000    0.0000
  band No.  band energies     occupation 
      1       0.5350      0.00000
      2       0.5350      0.00000
      3       3.3601      0.00000
      4       3.3601      0.00000
      5      10.3093      0.00000
      6      10.3093      0.00000
      7      11.7490      0.00000
      8      11.7490      0.00000

 k-point    11 :       0.1667    0.1667    0.1667
  band No.  band energies     occupation 
      1      -2.4561      2.00000
      2       3.5136      0.00000
      3       3.5136      0.00000
      4       5.9078      0.00000
      5      11.3328      0.00000
      6      11.3328      0.00000
      7      11.5942      0.00000
      8      11.9637      0.00000

 k-point    12 :       0.3333    0.1667    0.1667
  band No.  band energies     occupation 
      1      -1.6759      2.00000
      2       1.4270      0.00000
      3       4.5184      0.00000
      4       6.5510      0.00000
      5       8.4891      0.00000
      6       9.5502      0.00000
      7      11.8271      0.00000
      8      12.7715      0.00000

 k-point    13 :       0.5000    0.1667    0.1667
  band No.  band energies     occupation 
      1      -0.3738      2.00000
      2      -0.3738      2.00000
      3       6.1847      0.00000
      4       6.1847      0.00000
      5       7.8331      0.00000
      6       7.8331      0.00000
      7      12.3001      0.00000
      8      12.3001      0.00000

 k-point    14 :       0.3333    0.3333    0.1667
  band No.  band energies     occupation 
      1      -0.9115      2.00000
      2       1.5400      0.00000
      3       3.4546      0.00000
      4       6.4075      0.00000
      5       6.9543      0.00000
      6       9.5184      0.00000
      7      10.1477      0.00000
      8      11.9355      0.00000

 k-point    15 :       0.5000    0.3333    0.1667
  band No.  band energies     occupation 
      1       0.3045      0.54167
      2       0.3045      0.54167
      3       4.4470      0.00000
      4       4.4470      0.00000
      5       8.1128      0.00000
      6       8.1128      0.00000
      7      10.8230      0.00000
      8      10.8230      0.00000

 k-point    16 :       0.5000    0.5000    0.1667
  band No.  band energies     occupation 
      1       0.8725      0.00000
      2       0.8725      0.00000
      3       3.4068      0.00000
      4       3.4068      0.00000
      5       8.8830      0.00000
      6       8.8830      0.00000
      7       9.6449      0.00000
      8       9.6449      0.00000

 k-point    17 :       0.3333    0.3333    0.3333
  band No.  band energies     occupation 
      1      -0.1266      2.00000
      2       2.5504      0.00000
      3       2.5504      0.00000
      4       6.0968      0.00000
      5       6.5676      0.00000
      6       6.5676      0.00000
      7       9.1497      0.00000
      8      10.5212      0.00000

 k-point    18 :       0.5000    0.3333    0.3333
  band No.  band energies     occupation 
      1       1.1099      0.00000
      2       1.1099      0.00000
      3       4.2302      0.00000
      4       4.2302      0.00000
      5       6.3199      0.00000
      6       6.3199      0.00000
      7       9.3031      0.00000
      8       9.3031      0.00000

 k-point    19 :       0.5000    0.5000    0.3333
  band No.  band energies     occupation 
      1       1.8843      0.00000
      2       1.8843      0.00000
      3       3.5098      0.00000
      4       3.5098      0.00000
      5       5.9116      0.00000
      6       5.9116      0.00000
      7       8.6656      0.00000
      8       8.6656      0.00000

 k-point    20 :       0.5000    0.5000    0.5000
  band No.  band energies     occupation 
      1       3.5670      0.00000
      2       3.5670      0.00000
      3       3.5670      0.00000
      4       3.5670      0.00000
      5       3.5670      0.00000
      6       3.5670      0.00000
      7       8.2652      0.00000
      8       8.2652      0.00000


--------------------------------------------------------------------------------------------------------


 soft charge-density along one line, spin component           1
         0         1         2         3         4         5         6         7         8         9
 total charge-density along one line
 
 pseudopotential strength for first ion, spin component:           1
  1.156   5.298   0.000   0.000  -0.000
  5.298  23.096   0.000   0.000  -0.000
  0.000   0.000  -0.476  -0.000  -0.000
  0.000   0.000  -0.000  -0.476  -0.000
 -0.000  -0.000  -0.000  -0.000  -0.476
 total augmentation occupancy for first ion, spin component:           1
  1.057  -0.013   0.000   0.000   0.000
 -0.013   0.000   0.000   0.000   0.000
  0.000   0.000   0.044  -0.000  -0.000
  0.000   0.000  -0.000   0.044  -0.000
  0.000   0.000  -0.000  -0.000   0.044


------------------------ aborting loop because EDIFF is reached ----------------------------------------


    CHARGE:  cpu time    0.0015: real time    0.0015
    FORLOC:  cpu time    0.0000: real time    0.0000
    FORNL :  cpu time    0.0063: real time    0.0069
    STRESS:  cpu time    0.0066: real time    0.0066
    FORCOR:  cpu time    0.0028: real time    0.0028
    FORHAR:  cpu time    0.0005: real time    0.0005
    MIXING:  cpu time    0.0002: real time    0.0002
    OFIELD:  cpu time    0.0000: real time    0.0000

  FORCE on cell =-STRESS in cart. coord.  units (eV):
  Direction    XX          YY          ZZ          XY          YZ          ZX
  --------------------------------------------------------------------------------------
  Alpha Z     0.24605     0.24605     0.24605
  Ewald      -5.00205    -5.00205    -5.00205     0.00000    -0.00000     0.00000
  Hartree     0.00793     0.00793     0.00793    -0.00000    -0.00000    -0.00000
  E(xc)      -3.44786    -3.44786    -3.44786     0.00000    -0.00000    -0.00000
  Local       0.26722     0.26722     0.26722     0.00000    -0.00000    -0.00000
  n-local     2.54524     3.00357     3.12664    -0.15105    -0.09861    -0.07703
  augment     0.12292     0.12292     0.12292     0.00000     0.00000     0.00000
  Kinetic     8.60364     3.98550     1.65859     1.91635     0.91004     0.84171
  Fock        0.00000     0.00000     0.00000     0.00000     0.00000     0.00000
  -------------------------------------------------------------------------------------
  Total      -0.16473    -0.16473    -0.16473     0.00000    -0.00000     0.00000
  in kB      -6.19725    -6.19725    -6.19725     0.00000    -0.00000     0.00000
  external pressure =       -6.20 kB  Pullay stress =        0.00 kB


 VOLUME and BASIS-vectors are now :
 -----------------------------------------------------------------------------
  energy-cutoff  :      400.00
  volume of cell :       42.59
      direct lattice vectors                 reciprocal lattice vectors
     3.492179114 -0.000000000  0.000000000     0.286354155 -0.000000000  0.000000000
     0.000000000  3.492179114  0.000000000     0.000000000  0.286354155  0.000000000
    -0.000000000 -0.000000000  3.492179114    -0.000000000 -0.000000000  0.286354155

  length of vectors
     3.492179114  3.492179114  3.492179114     0.286354155  0.286354155  0.286354155


 FORCES acting on ions
    electron-ion (+dipol)            ewald-force                    non-local-force                 convergence-correction
 -----------------------------------------------------------------------------------------------
   -.270E-15 0.837E-17 -.851E-16   -.136E-15 -.182E-16 -.340E-16   -.115E-27 -.236E-27 0.000E+00   0.374E-17 -.416E-18 0.155E-19
   0.667E-16 0.208E-14 0.734E-16   0.121E-15 0.323E-16 0.299E-16   0.223E-27 0.322E-27 0.000E+00   -.174E-17 0.986E-19 -.132E-18
 -----------------------------------------------------------------------------------------------
   -.203E-15 0.209E-14 -.117E-16   -.148E-16 0.142E-16 -.401E-17   0.108E-27 0.861E-28 0.000E+00   0.200E-17 -.318E-18 -.116E-18
 
 
 POSITION                                       TOTAL-FORCE (eV/Angst)
 -----------------------------------------------------------------------------------
      0.00000      0.00000      0.00000        -0.000000     -0.000000     -0.000000
      1.74609      1.74609      1.74609         0.000000      0.000000      0.000000
 -----------------------------------------------------------------------------------
    total drift:                               -0.000000      0.000000     -0.000000


--------------------------------------------------------------------------------------------------------



  FREE ENERGIE OF THE ION-ELECTRON SYSTEM (eV)
  ---------------------------------------------------
  free  energy   TOTEN  =        -3.79523685 eV

  energy  without entropy=       -3.79003325  energy(sigma->0) =       -3.79263505
 
 d Force = 0.0000000E+00[ 0.000E+00, 0.000E+00]  d Energy = 0.2877795E-02-0.288E-02
 d Force = 0.0000000E+00[ 0.000E+00, 0.000E+00]  d Ewald  = 0.7635903E-01-0.764E-01


--------------------------------------------------------------------------------------------------------


    POTLOK:  cpu time    0.0421: real time    0.0421


--------------------------------------------------------------------------------------------------------


 Steepest descent step on ions:
 trial-energy change:   -0.002878  1 .order   -0.002868   -0.003220   -0.002515
  (g-gl).g = 0.322E-02      g.g   = 0.322E-02  gl.gl    = 0.000E+00
 g(Force)  = 0.357E-67   g(Stress)= 0.322E-02 ortho     = 0.000E+00
 gamma     =   0.00000
 trial     =   1.00000
 opt step  =   3.69497  (harmonic =   4.56387) maximal distance =0.00000000
 next E    =    -3.798826   (d E  =  -0.00647)


--------------------------------------------------------------------------------------------------------


    WAVPRE:  cpu time    0.0008: real time    0.0040
    FEWALD:  cpu time    0.0001: real time    0.0001
    GENKIN:  cpu time    0.0005: real time    0.0005

 real space projection operators:
  total allocation   :         69.92 KBytes
  max/ min on nodes  :          8.52          3.48

    ORTHCH:  cpu time    0.0054: real time    0.0054
     LOOP+:  cpu time    0.9055: real time    0.9546


--------------------------------------- Iteration      3(   1)  ---------------------------------------


    POTLOK:  cpu time    0.0026: real time    0.0040
    SETDIJ:  cpu time    0.0385: real time    0.0385
     EDDAV:  cpu time    0.0450: real time    0.0450
       DOS:  cpu time    0.0003: real time    0.0003
    CHARGE:  cpu time    0.0014: real time    0.0014
    MIXING:  cpu time    0.0001: real time    0.0001
    --------------------------------------------
      LOOP:  cpu time    0.0880: real time    0.0893

 eigenvalue-minimisations  :   352
 total energy-change (2. order) :-0.3702942E-02  (-0.1042075E-02)
 number of electron       2.0000000 magnetization 
 augmentation part        0.0154896 magnetization 

  free energy =  -0.379893978903E+01  energy without entropy=  -0.379373618790E+01


--------------------------------------------------------------------------------------------------------




--------------------------------------- Iteration      3(   2)  ---------------------------------------


    POTLOK:  cpu time    0.0032: real time    0.0032
    SETDIJ:  cpu time    0.0385: real time    0.0385
    EDDIAG:  cpu time    0.0819: real time    0.0821
  RMM-DIIS:  cpu time    0.0039: real time    0.0039
    ORTHCH:  cpu time    0.0050: real time    0.0050
       DOS:  cpu time    0.0004: real time    0.0004
    CHARGE:  cpu time    0.0014: real time    0.0014
    MIXING:  cpu time    0.0001: real time    0.0001
    --------------------------------------------
      LOOP:  cpu time    0.1344: real time    0.1346

 eigenvalue-minimisations  :   320
 total energy-change (2. order) : 0.1011068E-04  (-0.6253621E-05)
 number of electron       2.0000000 magnetization 
 augmentation part        0.0154570 magnetization 

 eigenvalues of (default mixing * dielectric matrix)
  average eigenvalue GAMMA=   2.5498
  2.5498

  free energy =  -0.379892967835E+01  energy without entropy=  -0.379372607723E+01


--------------------------------------------------------------------------------------------------------




--------------------------------------- Iteration      3(   3)  ---------------------------------------


    POTLOK:  cpu time    0.0033: real time    0.0033
    SETDIJ:  cpu time    0.0385: real time    0.0385
    EDDIAG:  cpu time    0.0822: real time    0.0830
  RMM-DIIS:  cpu time    0.0039: real time    0.0039
    ORTHCH:  cpu time    0.0049: real time    0.0049
       DOS:  cpu time    0.0004: real time    0.0004
    CHARGE:  cpu time    0.0015: real time    0.0015
    MIXING:  cpu time    0.0002: real time    0.0002
    --------------------------------------------
      LOOP:  cpu time    0.1348: real time    0.1356

 eigenvalue-minimisations  :   320
 total energy-change (2. order) : 0.5135460E-05  (-0.9864553E-06)
 number of electron       2.0000000 magnetization 
 augmentation part        0.0154404 magnetization 

 eigenvalues of (default mixing * dielectric matrix)
  average eigenvalue GAMMA=   2.2084
  1.4390  2.9777

  free energy =  -0.379892454289E+01  energy without entropy=  -0.379372094177E+01


--------------------------------------------------------------------------------------------------------




--------------------------------------- Iteration      3(   4)  ---------------------------------------


    POTLOK:  cpu time    0.0032: real time    0.0032
    SETDIJ:  cpu time    0.0388: real time    0.0389
    EDDIAG:  cpu time    0.0831: real time    0.0834
  RMM-DIIS:  cpu time    0.0039: real time    0.0039
    ORTHCH:  cpu time    0.0050: real time    0.0050
       DOS:  cpu time    0.0004: real time    0.0004
    CHARGE:  cpu time    0.0014: real time    0.0014
    MIXING:  cpu time    0.0002: real time    0.0002
    --------------------------------------------
      LOOP:  cpu time    0.1360: real time    0.1363

 eigenvalue-minimisations  :   310
 total energy-change (2. order) : 0.4224846E-06  (-0.1110430E-06)
 number of electron       2.0000000 magnetization 
 augmentation part        0.0154331 magnetization 

 eigenvalues of (default mixing * dielectric matrix)
  average eigenvalue GAMMA=   2.0854
  0.9331  2.7901  2.5329

  free energy =  -0.379892412041E+01  energy without entropy=  -0.379372051928E+01


--------------------------------------------------------------------------------------------------------




--------------------------------------- Iteration      3(   5)  ---------------------------------------


    POTLOK:  cpu time    0.0032: real time    0.0032
    SETDIJ:  cpu time    0.0386: real time    0.0386
    EDDIAG:  cpu time    0.0820: real time    0.0829
  RMM-DIIS:  cpu time    0.0040: real time    0.0040
    ORTHCH:  cpu time    0.0051: real time    0.0051
       DOS:  cpu time    0.0003: real time    0.0003
    CHARGE:  cpu time    0.0014: real time    0.0014
    MIXING:  cpu time    0.0002: real time    0.0002
    --------------------------------------------
      LOOP:  cpu time    0.1348: real time    0.1357

 eigenvalue-minimisations  :   304
 total energy-change (2. order) : 0.3348902E-06  (-0.4455800E-07)
 number of electron       2.0000000 magnetization 
 augmentation part        0.0154264 magnetization 

 eigenvalues of (default mixing * dielectric matrix)
  average eigenvalue GAMMA=   2.0568
  3.2161  2.5997  1.1171  1.2942

  free energy =  -0.379892378552E+01  energy without entropy=  -0.379372018439E+01


--------------------------------------------------------------------------------------------------------




--------------------------------------- Iteration      3(   6)  ---------------------------------------


    POTLOK:  cpu time    0.0033: real time    0.0033
    SETDIJ:  cpu time    0.0388: real time    0.0388
    EDDIAG:  cpu time    0.0815: real time    0.0828
  RMM-DIIS:  cpu time    0.0035: real time    0.0035
    ORTHCH:  cpu time    0.0050: real time    0.0050
       DOS:  cpu time    0.0004: real time    0.0004
    --------------------------------------------
      LOOP:  cpu time    0.1325: real time    0.1338

 eigenvalue-minimisations  :   244
 total energy-change (2. order) :-0.6443258E-08  (-0.1617327E-08)
 number of electron       2.0000000 magnetization 
 augmentation part        0.0154264 magnetization 

  free energy =  -0.379892379196E+01  energy without entropy=  -0.379372019083E+01


--------------------------------------------------------------------------------------------------------




 average (electrostatic) potential at core
  the test charge radii are     0.9748
  (the norm of the test charge is              1.0000)
       1 -30.5882       2 -30.5882
 
 
 
 E-fermi :   0.3888     XC(G=0):  -6.7529     alpha+bet : -7.1904

 Fermi energy:         0.3887786947

 k-point     1 :       0.0000    0.0000    0.0000
  band No.  band energies     occupation 
      1      -3.1858      2.00000
      2       5.8775      0.00000
      3       5.8775      0.00000
      4       5.8775      0.00000
      5       8.1182      0.00000
      6       8.1182      0.00000
      7      13.8520      0.00000
      8      14.9898      0.00000

 k-point     2 :       0.1667    0.0000    0.0000
  band No.  band energies     occupation 
      1      -2.9215      2.00000
      2       3.6391      0.00000
      3       6.2157      0.00000
      4       6.2157      0.00000
      5       8.4702      0.00000
      6      10.7544      0.00000
      7      13.6356      0.00000
      8      13.6356      0.00000

 k-point     3 :       0.3333    0.0000    0.0000
  band No.  band energies     occupation 
      1      -2.1219      2.00000
      2       1.1559      0.00000
      3       7.2255      0.00000
      4       7.2255      0.00000
      5       9.5262      0.00000
      6      11.1266      0.00000
      7      11.1266      0.00000
      8      12.6785      0.00000

 k-point     4 :       0.5000    0.0000    0.0000
  band No.  band energies     occupation 
      1      -0.7695      2.00000
      2      -0.7695      2.00000
      3       8.8860      0.00000
      4       8.8860      0.00000
      5       8.8860      0.00000
      6       8.8860      0.00000
      7      11.2860      0.00000
      8      11.2860      0.00000

 k-point     5 :       0.1667    0.1667    0.0000
  band No.  band energies     occupation 
      1      -2.6580      2.00000
      2       3.3507      0.00000
      3       4.7535      0.00000
      4       6.5520      0.00000
      5      10.1069      0.00000
      6      11.6940      0.00000
      7      12.0362      0.00000
      8      13.2039      0.00000

 k-point     6 :       0.3333    0.1667    0.0000
  band No.  band energies     occupation 
      1      -1.8633      2.00000
      2       1.3333      0.00000
      3       5.3248      0.00000
      4       7.5539      0.00000
      5       9.0844      0.00000
      6      11.2635      0.00000
      7      11.3214      0.00000
      8      13.3021      0.00000

 k-point     7 :       0.5000    0.1667    0.0000
  band No.  band energies     occupation 
      1      -0.5286      2.00000
      2      -0.5286      2.00000
      3       6.8969      0.00000
      4       6.8969      0.00000
      5       9.1888      0.00000
      6       9.1888      0.00000
      7      12.4174      0.00000
      8      12.4174      0.00000

 k-point     8 :       0.3333    0.3333    0.0000
  band No.  band energies     occupation 
      1      -1.0964      2.00000
      2       1.3180      0.00000
      3       3.8532      0.00000
      4       6.5908      0.00000
      5       8.5205      0.00000
      6      11.3595      0.00000
      7      11.9885      0.00000
      8      12.7404      0.00000

 k-point     9 :       0.5000    0.3333    0.0000
  band No.  band energies     occupation 
      1       0.1171      2.00000
      2       0.1171      2.00000
      3       4.6608      0.00000
      4       4.6608      0.00000
      5      10.0162      0.00000
      6      10.0162      0.00000
      7      12.2980      0.00000
      8      12.2980      0.00000

 k-point    10 :       0.5000    0.5000    0.0000
  band No.  band energies     occupation 
      1       0.6311      0.00000
      2       0.6311      0.00000
      3       3.5996      0.00000
      4       3.5996      0.00000
      5      10.7108      0.00000
      6      10.7108      0.00000
      7      12.1814      0.00000
      8      12.1814      0.00000

 k-point    11 :       0.1667    0.1667    0.1667
  band No.  band energies     occupation 
      1      -2.3944      2.00000
      2       3.6958      0.00000
      3       3.6958      0.00000
      4       6.2071      0.00000
      5      11.7473      0.00000
      6      11.7473      0.00000
      7      12.0598      0.00000
      8      12.3782      0.00000

 k-point    12 :       0.3333    0.1667    0.1667
  band No.  band energies     occupation 
      1      -1.6012      2.00000
      2       1.5606      0.00000
      3       4.7294      0.00000
      4       6.8754      0.00000
      5       8.8160      0.00000
      6       9.9494      0.00000
      7      12.2696      0.00000
      8      13.2772      0.00000

 k-point    13 :       0.5000    0.1667    0.1667
  band No.  band energies     occupation 
      1      -0.2757      2.00000
      2      -0.2757      2.00000
      3       6.4439      0.00000
      4       6.4439      0.00000
      5       8.1916      0.00000
      6       8.1916      0.00000
      7      12.7620      0.00000
      8      12.7620      0.00000

 k-point    14 :       0.3333    0.3333    0.1667
  band No.  band energies     occupation 
      1      -0.8244      2.00000
      2       1.6648      0.00000
      3       3.6598      0.00000
      4       6.6912      0.00000
      5       7.2919      0.00000
      6       9.8745      0.00000
      7      10.5778      0.00000
      8      12.3816      0.00000

 k-point    15 :       0.5000    0.3333    0.1667
  band No.  band energies     occupation 
      1       0.4104      0.54167
      2       0.4104      0.54167
      3       4.6812      0.00000
      4       4.6812      0.00000
      5       8.4664      0.00000
      6       8.4664      0.00000
      7      11.2390      0.00000
      8      11.2390      0.00000

 k-point    16 :       0.5000    0.5000    0.1667
  band No.  band energies     occupation 
      1       0.9782      0.00000
      2       0.9782      0.00000
      3       3.6342      0.00000
      4       3.6342      0.00000
      5       9.2197      0.00000
      6       9.2197      0.00000
      7      10.0631      0.00000
      8      10.0631      0.00000

 k-point    17 :       0.3333    0.3333    0.3333
  band No.  band energies     occupation 
      1      -0.0248      2.00000
      2       2.7040      0.00000
      3       2.7040      0.00000
      4       6.4341      0.00000
      5       6.8366      0.00000
      6       6.8366      0.00000
      7       9.5942      0.00000
      8      10.9386      0.00000

 k-point    18 :       0.5000    0.3333    0.3333
  band No.  band energies     occupation 
      1       1.2338      0.00000
      2       1.2338      0.00000
      3       4.4317      0.00000
      4       4.4317      0.00000
      5       6.6196      0.00000
      6       6.6196      0.00000
      7       9.7283      0.00000
      8       9.7283      0.00000

 k-point    19 :       0.5000    0.5000    0.3333
  band No.  band energies     occupation 
      1       2.0187      0.00000
      2       2.0187      0.00000
      3       3.7088      0.00000
      4       3.7088      0.00000
      5       6.1613      0.00000
      6       6.1613      0.00000
      7       9.1115      0.00000
      8       9.1115      0.00000

 k-point    20 :       0.5000    0.5000    0.5000
  band No.  band energies     occupation 
      1       3.7494      0.00000
      2       3.7494      0.00000
      3       3.7494      0.00000
      4       3.7494      0.00000
      5       3.7494      0.00000
      6       3.7494      0.00000
      7       8.7262      0.00000
      8       8.7262      0.00000


--------------------------------------------------------------------------------------------------------


 soft charge-density along one line, spin component           1
         0         1         2         3         4         5         6         7         8         9
 total charge-density along one line
 
 pseudopotential strength for first ion, spin component:           1
  1.157   5.299   0.000   0.000  -0.000
  5.299  23.085   0.000   0.000  -0.000
  0.000   0.000  -0.469  -0.000  -0.000
  0.000   0.000  -0.000  -0.469  -0.000
 -0.000  -0.000  -0.000  -0.000  -0.469
 total augmentation occupancy for first ion, spin component:           1
  1.095  -0.014   0.000   0.000   0.000
 -0.014   0.000   0.000   0.000   0.000
  0.000   0.000   0.046  -0.000  -0.000
  0.000   0.000   0.000   0.046   0.000
  0.000   0.000   0.000  -0.000   0.046


------------------------ aborting loop because EDIFF is reached ----------------------------------------


    CHARGE:  cpu time    0.0014: real time    0.0015
    FORLOC:  cpu time    0.0000: real time    0.0000
    FORNL :  cpu time    0.0025: real time    0.0025
    STRESS:  cpu time    0.0069: real time    0.0069
    FORCOR:  cpu time    0.0026: real time    0.0026
    FORHAR:  cpu time    0.0004: real time    0.0004
    MIXING:  cpu time    0.0002: real time    0.0002
    OFIELD:  cpu time    0.0000: real time    0.0000

  FORCE on cell =-STRESS in cart. coord.  units (eV):
  Direction    XX          YY          ZZ          XY          YZ          ZX
  --------------------------------------------------------------------------------------
  Alpha Z     0.25651     0.25651     0.25651
  Ewald      -5.07196    -5.07196    -5.07196    -0.00000    -0.00000    -0.00000
  Hartree     0.00851     0.00851     0.00851    -0.00000    -0.00000    -0.00000
  E(xc)      -3.49997    -3.49997    -3.49997     0.00000    -0.00000    -0.00000
  Local       0.27326     0.27326     0.27326     0.00000    -0.00000    -0.00000
  n-local     2.62012     3.10718     3.23643    -0.15964    -0.10477    -0.08168
  augment     0.12848     0.12848     0.12848     0.00000     0.00000     0.00000
  Kinetic     8.84513     4.12562     1.72322     1.97186     0.92929     0.86348
  Fock        0.00000     0.00000     0.00000     0.00000     0.00000     0.00000
  -------------------------------------------------------------------------------------
  Total      -0.01927    -0.01927    -0.01927    -0.00000    -0.00000     0.00000
  in kB      -0.75582    -0.75582    -0.75582    -0.00000    -0.00000     0.00000
  external pressure =       -0.76 kB  Pullay stress =        0.00 kB


 VOLUME and BASIS-vectors are now :
 -----------------------------------------------------------------------------
  energy-cutoff  :      400.00
  volume of cell :       40.85
      direct lattice vectors                 reciprocal lattice vectors
     3.444044559 -0.000000000  0.000000000     0.290356290 -0.000000000  0.000000000
     0.000000000  3.444044559  0.000000000     0.000000000  0.290356290  0.000000000
    -0.000000000 -0.000000000  3.444044559    -0.000000000 -0.000000000  0.290356290

  length of vectors
     3.444044559  3.444044559  3.444044559     0.290356290  0.290356290  0.290356290


 FORCES acting on ions
    electron-ion (+dipol)            ewald-force                    non-local-force                 convergence-correction
 -----------------------------------------------------------------------------------------------
   -.422E-16 0.705E-17 -.933E-16   -.335E-17 -.490E-16 -.284E-16   0.641E-27 -.247E-27 0.000E+00   0.139E-17 -.186E-18 0.283E-18
   0.338E-15 0.200E-14 0.296E-15   -.365E-16 0.464E-16 0.270E-16   0.154E-27 0.260E-27 0.000E+00   0.123E-17 -.129E-18 0.428E-19
 -----------------------------------------------------------------------------------------------
   0.296E-15 0.201E-14 0.203E-15   -.398E-16 -.258E-17 -.136E-17   0.795E-27 0.131E-28 0.000E+00   0.262E-17 -.316E-18 0.326E-18
 
 
 POSITION                                       TOTAL-FORCE (eV/Angst)
 -----------------------------------------------------------------------------------
      0.00000      0.00000      0.00000         0.000000     -0.000000      0.000000
      1.72202      1.72202      1.72202        -0.000000      0.000000     -0.000000
 -----------------------------------------------------------------------------------
    total drift:                                0.000000      0.000000      0.000000


--------------------------------------------------------------------------------------------------------



  FREE ENERGIE OF THE ION-ELECTRON SYSTEM (eV)
  ---------------------------------------------------
  free  energy   TOTEN  =        -3.79892379 eV

  energy  without entropy=       -3.79372019  energy(sigma->0) =       -3.79632199
 
 d Force = 0.0000000E+00[ 0.000E+00, 0.000E+00]  d Energy = 0.3686943E-02-0.369E-02
 d Force = 0.0000000E+00[ 0.000E+00, 0.000E+00]  d Ewald  = 0.2097286E+00-0.210E+00


--------------------------------------------------------------------------------------------------------


    POTLOK:  cpu time    0.0416: real time    0.0416


--------------------------------------------------------------------------------------------------------




--------------------------------------------------------------------------------------------------------


  
 reached required accuracy - stopping structural energy minimisation
     LOOP+:  cpu time    0.8555: real time    0.8679
    4ORBIT:  cpu time    0.0000: real time    0.0000

 total amount of memory used by VASP MPI-rank0    30238. kBytes
=======================================================================

   base      :      30000. kBytes
   nonlr-proj:         38. kBytes
   fftplans  :         88. kBytes
   grid      :         91. kBytes
   one-center:          1. kBytes
   wavefun   :         20. kBytes
 
  
  
 General timing and accounting informations for this job:
 ========================================================
  
                  Total CPU time used (sec):        3.523
                            User time (sec):        3.082
                          System time (sec):        0.441
                         Elapsed time (sec):        3.951
  
                   Maximum memory used (kb):       70576.
                   Average memory used (kb):          N/A
  
                          Minor page faults:        49479
                          Major page faults:            0
                 Voluntary context switches:         1274
