<?xml version="1.0" encoding="ISO-8859-1"?>
<modeling>
 <generator>
  <i name="program" type="string">vasp </i>
  <i name="version" type="string">6.2.1  </i>
  <i name="subversion" type="string">16May21 (build Dec 23 2021 00:35:04) complex                          parallel </i>
  <i name="platform" type="string">LinuxIFC </i>
  <i name="date" type="string">2023 02 21 </i>
  <i name="time" type="string">00:22:07 </i>
 </generator>
 <incar>
  <i type="string" name="PREC">Normal</i>
  <i type="string" name="ALGO">Fast</i>
  <i type="int" name="ISPIN">     0</i>
  <i type="int" name="NELM">   150</i>
  <i type="int" name="IBRION">     2</i>
  <i name="EDIFF">      0.00000001</i>
  <i name="EDIFFG">     -0.01000000</i>
  <i type="int" name="NSW">   800</i>
  <i type="int" name="ISIF">     3</i>
  <i name="ENCUT">    400.00000000</i>
  <i type="string" name="LREAL">AUTO</i>
  <i type="int" name="ISMEAR">     0</i>
  <i name="SIGMA">      0.05000000</i>
  <i name="KSPACING">      0.32000000</i>
  <i type="logical" name="KGAMMA"> T  </i>
  <i type="int" name="NWRITE">     1</i>
  <i type="int" name="LMAXMIX">     6</i>
  <i type="logical" name="LWAVE"> F  </i>
  <i type="logical" name="LCHARG"> F  </i>
  <i type="logical" name="LASPH"> T  </i>
  <i type="string" name="GGA">PE</i>
 </incar>
 <primitive_cell>
  <structure name="primitive_cell" >
   <crystal>
    <varray name="basis" >
     <v>       1.75502000       1.75502000      -1.75502000 </v>
     <v>      -1.75502000       1.75502000       1.75502000 </v>
     <v>       1.75502000      -1.75502000       1.75502000 </v>
    </varray>
    <i name="volume">     21.62251471 </i>
    <varray name="rec_basis" >
     <v>       0.28489704       0.28489704       0.00000000 </v>
     <v>      -0.00000000       0.28489704       0.28489704 </v>
     <v>       0.28489704       0.00000000       0.28489704 </v>
    </varray>
   </crystal>
   <varray name="positions" >
    <v>       0.00000000       0.00000000       0.00000000 </v>
   </varray>
  </structure>
  <varray name="primitive_index" >
   <v type="int" >        1 </v>
  </varray>
 </primitive_cell>
 <kpoints>
  <generation param="Gamma">
   <v type="int" name="divisions">       6        6        6 </v>
   <v name="usershift">      0.00000000       0.00000000       0.00000000 </v>
   <v name="genvec1">      0.16666667       0.00000000       0.00000000 </v>
   <v name="genvec2">      0.00000000       0.16666667       0.00000000 </v>
   <v name="genvec3">      0.00000000       0.00000000       0.16666667 </v>
   <v name="shift">      0.00000000       0.00000000       0.00000000 </v>
  </generation>
  <varray name="kpointlist" >
   <v>       0.00000000       0.00000000       0.00000000 </v>
   <v>       0.16666667       0.00000000       0.00000000 </v>
   <v>       0.33333333       0.00000000       0.00000000 </v>
   <v>       0.50000000       0.00000000       0.00000000 </v>
   <v>       0.16666667       0.16666667       0.00000000 </v>
   <v>       0.33333333       0.16666667       0.00000000 </v>
   <v>       0.50000000       0.16666667       0.00000000 </v>
   <v>       0.33333333       0.33333333       0.00000000 </v>
   <v>       0.50000000       0.33333333       0.00000000 </v>
   <v>       0.50000000       0.50000000       0.00000000 </v>
   <v>       0.16666667       0.16666667       0.16666667 </v>
   <v>       0.33333333       0.16666667       0.16666667 </v>
   <v>       0.50000000       0.16666667       0.16666667 </v>
   <v>       0.33333333       0.33333333       0.16666667 </v>
   <v>       0.50000000       0.33333333       0.16666667 </v>
   <v>       0.50000000       0.50000000       0.16666667 </v>
   <v>       0.33333333       0.33333333       0.33333333 </v>
   <v>       0.50000000       0.33333333       0.33333333 </v>
   <v>       0.50000000       0.50000000       0.33333333 </v>
   <v>       0.50000000       0.50000000       0.50000000 </v>
  </varray>
  <varray name="weights" >
   <v>       0.00462963 </v>
   <v>       0.02777778 </v>
   <v>       0.02777778 </v>
   <v>       0.01388889 </v>
   <v>       0.05555556 </v>
   <v>       0.11111111 </v>
   <v>       0.05555556 </v>
   <v>       0.05555556 </v>
   <v>       0.05555556 </v>
   <v>       0.01388889 </v>
   <v>       0.03703704 </v>
   <v>       0.11111111 </v>
   <v>       0.05555556 </v>
   <v>       0.11111111 </v>
   <v>       0.11111111 </v>
   <v>       0.02777778 </v>
   <v>       0.03703704 </v>
   <v>       0.05555556 </v>
   <v>       0.02777778 </v>
   <v>       0.00462963 </v>
  </varray>
 </kpoints>
 <parameters>
  <separator name="general" >
   <i type="string" name="SYSTEM">unknown system</i>
   <i type="logical" name="LCOMPAT"> F  </i>
  </separator>
  <separator name="electronic" >
   <i type="string" name="PREC">normal</i>
   <i name="ENMAX">    400.00000000</i>
   <i name="ENAUG">    331.63800000</i>
   <i name="EDIFF">      0.00000001</i>
   <i type="int" name="IALGO">    68</i>
   <i type="int" name="IWAVPR">    11</i>
   <i type="int" name="NBANDS">     8</i>
   <i type="int" name="NBANDSLOW">    -1</i>
   <i type="int" name="NBANDSHIGH">    -1</i>
   <i name="NELECT">      2.00000000</i>
   <i type="int" name="TURBO">     0</i>
   <i type="int" name="IRESTART">     0</i>
   <i type="int" name="NREBOOT">     0</i>
   <i type="int" name="NMIN">     0</i>
   <i name="EREF">      0.00000000</i>
   <separator name="electronic smearing" >
    <i type="int" name="ISMEAR">     0</i>
    <i name="SIGMA">      0.05000000</i>
    <i name="KSPACING">      0.32000000</i>
    <i type="logical" name="KGAMMA"> T  </i>
    <i type="logical" name="KBLOWUP"> T  </i>
   </separator>
   <separator name="electronic projectors" >
    <i type="logical" name="LREAL"> T  </i>
    <v name="ROPT">     -0.00050000</v>
    <i type="int" name="LMAXPAW">  -100</i>
    <i type="int" name="LMAXMIX">     6</i>
    <i type="logical" name="NLSPLINE"> F  </i>
   </separator>
   <separator name="electronic startup" >
    <i type="int" name="ISTART">     0</i>
    <i type="int" name="ICHARG">     2</i>
    <i type="int" name="INIWAV">     1</i>
   </separator>
   <separator name="electronic spin" >
    <i type="int" name="ISPIN">     1</i>
    <i type="logical" name="LNONCOLLINEAR"> F  </i>
    <v name="MAGMOM">      1.00000000      1.00000000</v>
    <i name="NUPDOWN">     -1.00000000</i>
    <i type="logical" name="LSORBIT"> F  </i>
    <v name="SAXIS">      0.00000000      0.00000000      1.00000000</v>
    <i type="logical" name="LSPIRAL"> F  </i>
    <v name="QSPIRAL">      0.00000000      0.00000000      0.00000000</v>
    <i type="logical" name="LZEROZ"> F  </i>
   </separator>
   <separator name="electronic exchange-correlation" >
    <i type="logical" name="LASPH"> T  </i>
    <i type="logical" name="LMETAGGA"> F  </i>
   </separator>
   <separator name="electronic convergence" >
    <i type="int" name="NELM">   150</i>
    <i type="int" name="NELMDL">    -5</i>
    <i type="int" name="NELMIN">     2</i>
    <i name="ENINI">    400.00000000</i>
    <separator name="electronic convergence detail" >
     <i type="logical" name="LDIAG"> T  </i>
     <i type="logical" name="LSUBROT"> F  </i>
     <i name="WEIMIN">      0.00100000</i>
     <i name="EBREAK">      0.00000000</i>
     <i name="DEPER">      0.30000000</i>
     <i type="int" name="NRMM">     4</i>
     <i name="TIME">      0.40000000</i>
    </separator>
   </separator>
   <separator name="electronic mixer" >
    <i name="AMIX">      0.40000000</i>
    <i name="BMIX">      1.00000000</i>
    <i name="AMIN">      0.10000000</i>
    <i name="AMIX_MAG">      1.60000000</i>
    <i name="BMIX_MAG">      1.00000000</i>
    <separator name="electronic mixer details" >
     <i type="int" name="IMIX">     4</i>
     <i type="logical" name="MIXFIRST"> F  </i>
     <i type="int" name="MAXMIX">   -45</i>
     <i name="WC">    100.00000000</i>
     <i type="int" name="INIMIX">     1</i>
     <i type="int" name="MIXPRE">     1</i>
     <i type="int" name="MREMOVE">     5</i>
    </separator>
   </separator>
   <separator name="electronic dipolcorrection" >
    <i type="logical" name="LDIPOL"> F  </i>
    <i type="logical" name="LMONO"> F  </i>
    <i type="int" name="IDIPOL">     0</i>
    <i name="EPSILON">      1.00000000</i>
    <v name="DIPOL">   -100.00000000   -100.00000000   -100.00000000</v>
    <i name="EFIELD">      0.00000000</i>
   </separator>
  </separator>
  <separator name="grids" >
   <i type="int" name="NGX">    18</i>
   <i type="int" name="NGY">    18</i>
   <i type="int" name="NGZ">    18</i>
   <i type="int" name="NGXF">    36</i>
   <i type="int" name="NGYF">    36</i>
   <i type="int" name="NGZF">    36</i>
   <i type="logical" name="ADDGRID"> F  </i>
  </separator>
  <separator name="ionic" >
   <i type="int" name="NSW">   800</i>
   <i type="int" name="IBRION">     2</i>
   <i type="int" name="MDALGO">     0</i>
   <i type="int" name="ISIF">     3</i>
   <i name="PSTRESS">      0.00000000</i>
   <i name="EDIFFG">     -0.01000000</i>
   <i type="int" name="NFREE">     1</i>
   <i name="POTIM">      0.50000000</i>
   <i name="SMASS">     -3.00000000</i>
   <i name="SCALEE">      1.00000000</i>
  </separator>
  <separator name="ionic md" >
   <i name="TEBEG">      0.00010000</i>
   <i name="TEEND">      0.00010000</i>
   <i type="int" name="NBLOCK">     1</i>
   <i type="int" name="KBLOCK">   800</i>
   <i type="int" name="NPACO">   256</i>
   <i name="APACO">     16.00000000</i>
  </separator>
  <separator name="symmetry" >
   <i type="int" name="ISYM">     2</i>
   <i name="SYMPREC">      0.00001000</i>
  </separator>
  <separator name="dos" >
   <i type="int" name="LORBIT">     0</i>
   <v name="RWIGS">     -1.00000000</v>
   <i type="int" name="NEDOS">   301</i>
   <i name="EMIN">     10.00000000</i>
   <i name="EMAX">    -10.00000000</i>
   <i name="EFERMI">      0.00000000</i>
  </separator>
  <separator name="writing" >
   <i type="int" name="NWRITE">     1</i>
   <i type="logical" name="LWAVE"> F  </i>
   <i type="logical" name="LDOWNSAMPLE"> F  </i>
   <i type="logical" name="LCHARG"> F  </i>
   <i type="logical" name="LPARD"> F  </i>
   <i type="logical" name="LVTOT"> F  </i>
   <i type="logical" name="LVHAR"> F  </i>
   <i type="logical" name="LELF"> F  </i>
   <i type="logical" name="LOPTICS"> F  </i>
   <v name="STM">      0.00000000      0.00000000      0.00000000      0.00000000      0.00000000      0.00000000      0.00000000</v>
  </separator>
  <separator name="performance" >
   <i type="int" name="NPAR">     8</i>
   <i type="int" name="NSIM">     4</i>
   <i type="int" name="NBLK">    -1</i>
   <i type="logical" name="LPLANE"> T  </i>
   <i type="logical" name="LSCALAPACK"> T  </i>
   <i type="logical" name="LSCAAWARE"> T  </i>
   <i type="logical" name="LSCALU"> F  </i>
   <i type="logical" name="LASYNC"> F  </i>
   <i type="logical" name="LORBITALREAL"> F  </i>
  </separator>
  <separator name="miscellaneous" >
   <i type="int" name="IDIOT">     3</i>
   <i type="int" name="PHON_NSTRUCT">    -1</i>
   <i type="logical" name="LMUSIC"> F  </i>
   <v name="POMASS">      7.01000000</v>
   <v name="DARWINR">      0.00000000</v>
   <v name="DARWINV">      1.00000000</v>
   <i type="logical" name="LCORR"> T  </i>
  </separator>
  <i type="logical" name="GGA_COMPAT"> T  </i>
  <i type="logical" name="LBERRY"> F  </i>
  <i type="int" name="ICORELEVEL">     0</i>
  <i type="logical" name="LDAU"> F  </i>
  <i type="int" name="I_CONSTRAINED_M">     0</i>
  <separator name="electronic exchange-correlation" >
   <i type="string" name="GGA">PE</i>
   <i type="int" name="VOSKOWN">     0</i>
   <i type="logical" name="LHFCALC"> F  </i>
   <i type="string" name="PRECFOCK"></i>
   <i type="logical" name="LSYMGRAD"> F  </i>
   <i type="logical" name="LHFONE"> F  </i>
   <i type="logical" name="LRHFCALC"> F  </i>
   <i type="logical" name="LTHOMAS"> F  </i>
   <i type="logical" name="LMODELHF"> F  </i>
   <i type="logical" name="LFOCKACE"> F  </i>
   <i name="ENCUT4O">     -1.00000000</i>
   <i type="int" name="EXXOEP">     0</i>
   <i type="int" name="FOURORBIT">     0</i>
   <i name="AEXX">      0.00000000</i>
   <i name="HFALPHA">      0.00000000</i>
   <i name="MCALPHA">      0.00000000</i>
   <i name="ALDAX">      1.00000000</i>
   <i name="AGGAX">      1.00000000</i>
   <i name="ALDAC">      1.00000000</i>
   <i name="AGGAC">      1.00000000</i>
   <i type="int" name="NKREDX">     1</i>
   <i type="int" name="NKREDY">     1</i>
   <i type="int" name="NKREDZ">     1</i>
   <i type="logical" name="SHIFTRED"> F  </i>
   <i type="logical" name="ODDONLY"> F  </i>
   <i type="logical" name="EVENONLY"> F  </i>
   <i type="int" name="LMAXFOCK">     0</i>
   <i type="int" name="NMAXFOCKAE">     0</i>
   <i type="logical" name="LFOCKAEDFT"> F  </i>
   <i name="HFSCREEN">      0.00000000</i>
   <i name="HFSCREENC">      0.00000000</i>
   <i type="int" name="NBANDSGWLOW">     0</i>
  </separator>
  <separator name="vdW DFT" >
   <i type="logical" name="LUSE_VDW"> F  </i>
   <i name="Zab_VDW">     -0.84910000</i>
   <i name="PARAM1">      0.12340000</i>
   <i name="PARAM2">      1.00000000</i>
   <i name="PARAM3">      0.00000000</i>
  </separator>
  <separator name="model GW" >
   <i type="int" name="MODEL_GW">     0</i>
   <i name="MODEL_EPS0">     12.97350883</i>
   <i name="MODEL_ALPHA">      1.00000000</i>
  </separator>
  <separator name="linear response parameters" >
   <i type="logical" name="LEPSILON"> F  </i>
   <i type="logical" name="LRPA"> F  </i>
   <i type="logical" name="LNABLA"> F  </i>
   <i type="logical" name="LVEL"> F  </i>
   <i type="int" name="KINTER">     0</i>
   <i name="CSHIFT">      0.10000000</i>
   <i name="OMEGAMAX">     -1.00000000</i>
   <i name="DEG_THRESHOLD">      0.00200000</i>
   <i name="RTIME">     -0.10000000</i>
   <i name="WPLASMAI">      0.00000000</i>
   <v name="DFIELD">      0.00000000      0.00000000      0.00000000</v>
   <v name="WPLASMA">      0.00000000      0.00000000      0.00000000      0.00000000      0.00000000      0.00000000      0.00000000      0.00000000      0.00000000</v>
  </separator>
  <separator name="orbital magnetization" >
   <i type="logical" name="NUCIND"> F  </i>
   <v name="MAGPOS">      0.00000000      0.00000000      0.00000000</v>
   <i type="logical" name="LNICSALL"> T  </i>
   <i type="logical" name="ORBITALMAG"> F  </i>
   <i type="logical" name="LMAGBLOCH"> F  </i>
   <i type="logical" name="LCHIMAG"> F  </i>
   <i type="logical" name="LGAUGE"> T  </i>
   <i type="int" name="MAGATOM">     0</i>
   <v name="MAGDIPOL">      0.00000000      0.00000000      0.00000000</v>
   <v name="AVECCONST">      0.00000000      0.00000000      0.00000000</v>
  </separator>
  <separator name="response functions" >
   <i type="logical" name="LFINITE_TEMPERATURE"> F  </i>
   <i type="logical" name="LADDER"> F  </i>
   <i type="logical" name="LRPAFORCE"> F  </i>
   <i type="logical" name="LFXC"> F  </i>
   <i type="logical" name="LHARTREE"> T  </i>
   <i type="int" name="IBSE">     0</i>
   <v type="int" name="KPOINT">    -1     0     0     0</v>
   <i type="logical" name="LTCTC"> F  </i>
   <i type="logical" name="LTCTE"> F  </i>
   <i type="logical" name="LTETE"> F  </i>
   <i type="logical" name="LTRIPLET"> F  </i>
   <i type="logical" name="LFXCEPS"> F  </i>
   <i type="logical" name="LFXHEG"> F  </i>
   <i type="int" name="NATURALO">     2</i>
   <i type="logical" name="LHOLEGF"> F  </i>
   <i type="logical" name="L2ORDER"> F  </i>
   <i type="logical" name="LDMP1"> F  </i>
   <i type="logical" name="LMP2LT"> F  </i>
   <i type="logical" name="LSMP2LT"> F  </i>
   <i type="logical" name="LGWLF"> F  </i>
   <i name="ENCUTGW">     -2.00000000</i>
   <i name="ENCUTGWSOFT">     -2.00000000</i>
   <i name="ENCUTLF">     -1.00000000</i>
   <i type="logical" name="LESF_SPLINES"> F  </i>
   <i type="int" name="LMAXMP2">    -1</i>
   <i name="SCISSOR">      0.00000000</i>
   <i type="int" name="NOMEGA">     0</i>
   <i type="int" name="NOMEGAR">     0</i>
   <i type="int" name="NBANDSGW">    -1</i>
   <i type="int" name="NBANDSO">    -1</i>
   <i type="int" name="NBANDSV">    -1</i>
   <i type="int" name="NELM">   150</i>
   <i type="int" name="NELMHF">     1</i>
   <i type="int" name="DIM">     3</i>
   <i type="int" name="IESPILON">     4</i>
   <i type="int" name="ANTIRES">     0</i>
   <i name="OMEGAMAX">    -30.00000000</i>
   <i name="OMEGAMIN">    -30.00000000</i>
   <i name="OMEGATL">   -200.00000000</i>
   <i type="int" name="OMEGAGRID">     0</i>
   <i name="CSHIFT">     -0.10000000</i>
   <i type="logical" name="LSELFENERGY"> F  </i>
   <i type="logical" name="LSPECTRAL"> F  </i>
   <i type="logical" name="LSPECTRALGW"> F  </i>
   <i type="logical" name="LSINGLES"> F  </i>
   <i type="logical" name="LFERMIGW"> F  </i>
   <i type="logical" name="ODDONLYGW"> F  </i>
   <i type="logical" name="EVENONLYGW"> F  </i>
   <i type="int" name="NKREDLFX">     1</i>
   <i type="int" name="NKREDLFY">     1</i>
   <i type="int" name="NKREDLFZ">     1</i>
   <i type="int" name="MAXMEM">  2800</i>
   <i type="int" name="TELESCOPE">     0</i>
   <i type="int" name="NTAUPAR">    -1</i>
   <i type="int" name="NOMEGAPAR">    -1</i>
   <i name="DAMP_NEWTON">      0.80000001</i>
   <i name="LAMBDA">      1.00000000</i>
  </separator>
  <separator name="External order field" >
   <i name="OFIELD_KAPPA">      0.00000000</i>
   <v name="OFIELD_K">      0.00000000      0.00000000      0.00000000</v>
   <i name="OFIELD_Q6_NEAR">      0.00000000</i>
   <i name="OFIELD_Q6_FAR">      0.00000000</i>
   <i name="OFIELD_A">      0.00000000</i>
  </separator>
 </parameters>
 <atominfo>
  <atoms>       2 </atoms>
  <types>       1 </types>
  <array name="atoms" >
   <dimension dim="1">ion</dimension>
   <field type="string">element</field>
   <field type="int">atomtype</field>
   <set>
    <rc><c>Li</c><c>   1</c></rc>
    <rc><c>Li</c><c>   1</c></rc>
   </set>
  </array>
  <array name="atomtypes" >
   <dimension dim="1">type</dimension>
   <field type="int">atomspertype</field>
   <field type="string">element</field>
   <field>mass</field>
   <field>valence</field>
   <field type="string">pseudopotential</field>
   <set>
    <rc><c>   2</c><c>Li</c><c>      7.01000000</c><c>      1.00000000</c><c>  PAW_PBE Li 17Jan2003                  </c></rc>
   </set>
  </array>
 </atominfo>
 <structure name="initialpos" >
  <crystal>
   <varray name="basis" >
    <v>       3.51004000       0.00000000       0.00000000 </v>
    <v>       0.00000000       3.51004000       0.00000000 </v>
    <v>       0.00000000       0.00000000       3.51004000 </v>
   </varray>
   <i name="volume">     43.24502943 </i>
   <varray name="rec_basis" >
    <v>       0.28489704       0.00000000       0.00000000 </v>
    <v>       0.00000000       0.28489704       0.00000000 </v>
    <v>       0.00000000       0.00000000       0.28489704 </v>
   </varray>
  </crystal>
  <varray name="positions" >
   <v>       0.00000000       0.00000000       0.00000000 </v>
   <v>       0.50000000       0.50000000       0.50000000 </v>
  </varray>
 </structure>
 <calculation>
  <scstep>
   <time name="dav">    0.06    0.06</time>
   <time name="total">    0.11    0.11</time>
   <energy>
    <i name="alphaZ">      0.24231200 </i>
    <i name="ewald">    -14.92979778 </i>
    <i name="hartreedc">     -0.00816134 </i>
    <i name="XCdc">     -8.59261182 </i>
    <i name="pawpsdc">     15.32523118 </i>
    <i name="pawaedc">     -4.20845459 </i>
    <i name="eentropy">     -0.00395732 </i>
    <i name="bandstr">     -1.82822071 </i>
    <i name="atom">     10.60017774 </i>
    <i name="e_fr_energy">     -3.40348265 </i>
    <i name="e_wo_entrp">     -3.39952533 </i>
    <i name="e_0_energy">     -3.40150399 </i>
   </energy>
  </scstep>
  <scstep>
   <time name="dav">    0.06    0.06</time>
   <time name="total">    0.06    0.06</time>
   <energy>
    <i name="e_fr_energy">     -3.79117137 </i>
    <i name="e_wo_entrp">     -3.78611388 </i>
    <i name="e_0_energy">     -3.78864262 </i>
   </energy>
  </scstep>
  <scstep>
   <time name="dav">    0.05    0.05</time>
   <time name="total">    0.05    0.05</time>
   <energy>
    <i name="e_fr_energy">     -3.79458262 </i>
    <i name="e_wo_entrp">     -3.78937902 </i>
    <i name="e_0_energy">     -3.79198082 </i>
   </energy>
  </scstep>
  <scstep>
   <time name="dav">    0.05    0.05</time>
   <time name="total">    0.06    0.06</time>
   <energy>
    <i name="e_fr_energy">     -3.79458663 </i>
    <i name="e_wo_entrp">     -3.78938303 </i>
    <i name="e_0_energy">     -3.79198483 </i>
   </energy>
  </scstep>
  <scstep>
   <time name="dav">    0.05    0.05</time>
   <time name="total">    0.05    0.06</time>
   <energy>
    <i name="e_fr_energy">     -3.79458665 </i>
    <i name="e_wo_entrp">     -3.78938304 </i>
    <i name="e_0_energy">     -3.79198484 </i>
   </energy>
  </scstep>
  <scstep>
   <time name="diag">    0.10    0.10</time>
   <time name="diis">    0.01    0.01</time>
   <time name="orth">    0.01    0.01</time>
   <time name="total">    0.16    0.17</time>
   <energy>
    <i name="e_fr_energy">     -3.79326615 </i>
    <i name="e_wo_entrp">     -3.78806255 </i>
    <i name="e_0_energy">     -3.79066435 </i>
   </energy>
  </scstep>
  <scstep>
   <time name="diag">    0.09    0.09</time>
   <time name="diis">    0.00    0.00</time>
   <time name="orth">    0.01    0.01</time>
   <time name="total">    0.14    0.14</time>
   <energy>
    <i name="e_fr_energy">     -3.79239186 </i>
    <i name="e_wo_entrp">     -3.78718826 </i>
    <i name="e_0_energy">     -3.78979006 </i>
   </energy>
  </scstep>
  <scstep>
   <time name="diag">    0.08    0.08</time>
   <time name="diis">    0.00    0.00</time>
   <time name="orth">    0.00    0.00</time>
   <time name="total">    0.14    0.14</time>
   <energy>
    <i name="e_fr_energy">     -3.79236398 </i>
    <i name="e_wo_entrp">     -3.78716038 </i>
    <i name="e_0_energy">     -3.78976218 </i>
   </energy>
  </scstep>
  <scstep>
   <time name="diag">    0.08    0.08</time>
   <time name="diis">    0.00    0.00</time>
   <time name="orth">    0.01    0.01</time>
   <time name="total">    0.14    0.14</time>
   <energy>
    <i name="e_fr_energy">     -3.79235901 </i>
    <i name="e_wo_entrp">     -3.78715541 </i>
    <i name="e_0_energy">     -3.78975721 </i>
   </energy>
  </scstep>
  <scstep>
   <time name="diag">    0.08    0.08</time>
   <time name="diis">    0.00    0.00</time>
   <time name="orth">    0.00    0.00</time>
   <time name="total">    0.14    0.14</time>
   <energy>
    <i name="e_fr_energy">     -3.79235906 </i>
    <i name="e_wo_entrp">     -3.78715546 </i>
    <i name="e_0_energy">     -3.78975726 </i>
   </energy>
  </scstep>
  <scstep>
   <time name="diag">    0.20    0.36</time>
   <time name="diis">    0.00    0.00</time>
   <time name="orth">    0.01    0.01</time>
   <time name="total">    0.25    0.41</time>
   <energy>
    <i name="alphaZ">      0.24231200 </i>
    <i name="ewald">    -14.92979778 </i>
    <i name="hartreedc">     -0.02317783 </i>
    <i name="XCdc">     -8.54745438 </i>
    <i name="pawpsdc">     17.61425472 </i>
    <i name="pawaedc">     -6.50948538 </i>
    <i name="eentropy">     -0.00520360 </i>
    <i name="bandstr">     -2.23398453 </i>
    <i name="atom">     10.60017774 </i>
    <i name="e_fr_energy">     -3.79235905 </i>
    <i name="e_wo_entrp">     -3.78715545 </i>
    <i name="e_0_energy">     -3.78975725 </i>
   </energy>
  </scstep>
  <structure>
   <crystal>
    <varray name="basis" >
     <v>       3.51004000       0.00000000       0.00000000 </v>
     <v>       0.00000000       3.51004000       0.00000000 </v>
     <v>       0.00000000       0.00000000       3.51004000 </v>
    </varray>
    <i name="volume">     43.24502943 </i>
    <varray name="rec_basis" >
     <v>       0.28489704       0.00000000       0.00000000 </v>
     <v>       0.00000000       0.28489704       0.00000000 </v>
     <v>       0.00000000       0.00000000       0.28489704 </v>
    </varray>
   </crystal>
   <varray name="positions" >
    <v>       0.00000000       0.00000000       0.00000000 </v>
    <v>       0.50000000       0.50000000       0.50000000 </v>
   </varray>
  </structure>
  <varray name="forces" >
   <v>       0.00000000       0.00000000       0.00000000 </v>
   <v>      -0.00000000      -0.00000000      -0.00000000 </v>
  </varray>
  <varray name="stress" >
   <v>      -7.81563255      -0.00000000       0.00000000 </v>
   <v>       0.00000000      -7.81563255       0.00000000 </v>
   <v>      -0.00000000      -0.00000000      -7.81563255 </v>
  </varray>
  <energy>
   <i name="e_fr_energy">     -3.79235905 </i>
   <i name="e_wo_entrp">     -3.78715545 </i>
   <i name="e_0_energy">     -3.78975725 </i>
  </energy>
  <time name="totalsc">    1.40    1.58</time>
 </calculation>
 <calculation>
  <scstep>
   <time name="dav">    0.06    0.06</time>
   <time name="total">    0.11    0.13</time>
   <energy>
    <i name="alphaZ">      0.24604899 </i>
    <i name="ewald">    -15.00615682 </i>
    <i name="hartreedc">     -0.02329526 </i>
    <i name="XCdc">     -8.53721759 </i>
    <i name="pawpsdc">     17.61517683 </i>
    <i name="pawaedc">     -6.51040868 </i>
    <i name="eentropy">     -0.00520360 </i>
    <i name="bandstr">     -2.17435923 </i>
    <i name="atom">     10.60017774 </i>
    <i name="e_fr_energy">     -3.79523762 </i>
    <i name="e_wo_entrp">     -3.79003402 </i>
    <i name="e_0_energy">     -3.79263582 </i>
   </energy>
  </scstep>
  <scstep>
   <time name="diag">    0.09    0.09</time>
   <time name="diis">    0.00    0.01</time>
   <time name="orth">    0.01    0.01</time>
   <time name="total">    0.15    0.16</time>
   <energy>
    <i name="e_fr_energy">     -3.79523691 </i>
    <i name="e_wo_entrp">     -3.79003331 </i>
    <i name="e_0_energy">     -3.79263511 </i>
   </energy>
  </scstep>
  <scstep>
   <time name="diag">    0.08    0.08</time>
   <time name="diis">    0.00    0.00</time>
   <time name="orth">    0.01    0.01</time>
   <time name="total">    0.14    0.14</time>
   <energy>
    <i name="e_fr_energy">     -3.79523705 </i>
    <i name="e_wo_entrp">     -3.79003345 </i>
    <i name="e_0_energy">     -3.79263525 </i>
   </energy>
  </scstep>
  <scstep>
   <time name="diag">    0.08    0.08</time>
   <time name="diis">    0.00    0.00</time>
   <time name="orth">    0.01    0.01</time>
   <time name="total">    0.14    0.14</time>
   <energy>
    <i name="e_fr_energy">     -3.79523695 </i>
    <i name="e_wo_entrp">     -3.79003335 </i>
    <i name="e_0_energy">     -3.79263515 </i>
   </energy>
  </scstep>
  <scstep>
   <time name="diag">    0.08    0.08</time>
   <time name="diis">    0.00    0.00</time>
   <time name="orth">    0.01    0.01</time>
   <time name="total">    0.14    0.14</time>
   <energy>
    <i name="e_fr_energy">     -3.79523685 </i>
    <i name="e_wo_entrp">     -3.79003325 </i>
    <i name="e_0_energy">     -3.79263505 </i>
   </energy>
  </scstep>
  <scstep>
   <time name="diag">    0.08    0.08</time>
   <time name="diis">    0.00    0.00</time>
   <time name="orth">    0.00    0.00</time>
   <time name="total">    0.13    0.13</time>
   <energy>
    <i name="alphaZ">      0.24604899 </i>
    <i name="ewald">    -15.00615682 </i>
    <i name="hartreedc">     -0.02380286 </i>
    <i name="XCdc">     -8.53630087 </i>
    <i name="pawpsdc">     17.80527087 </i>
    <i name="pawaedc">     -6.70122384 </i>
    <i name="eentropy">     -0.00520360 </i>
    <i name="bandstr">     -2.17404645 </i>
    <i name="atom">     10.60017774 </i>
    <i name="e_fr_energy">     -3.79523685 </i>
    <i name="e_wo_entrp">     -3.79003325 </i>
    <i name="e_0_energy">     -3.79263505 </i>
   </energy>
  </scstep>
  <structure>
   <crystal>
    <varray name="basis" >
     <v>       3.49217911      -0.00000000       0.00000000 </v>
     <v>       0.00000000       3.49217911       0.00000000 </v>
     <v>      -0.00000000      -0.00000000       3.49217911 </v>
    </varray>
    <i name="volume">     42.58822419 </i>
    <varray name="rec_basis" >
     <v>       0.28635416      -0.00000000       0.00000000 </v>
     <v>       0.00000000       0.28635416       0.00000000 </v>
     <v>      -0.00000000      -0.00000000       0.28635416 </v>
    </varray>
   </crystal>
   <varray name="positions" >
    <v>       0.00000000       0.00000000       0.00000000 </v>
    <v>       0.50000000       0.50000000       0.50000000 </v>
   </varray>
  </structure>
  <varray name="forces" >
   <v>      -0.00000000      -0.00000000      -0.00000000 </v>
   <v>       0.00000000       0.00000000       0.00000000 </v>
  </varray>
  <varray name="stress" >
   <v>      -6.19725473      -0.00000000       0.00000000 </v>
   <v>       0.00000000      -6.19725473      -0.00000000 </v>
   <v>      -0.00000000      -0.00000000      -6.19725473 </v>
  </varray>
  <energy>
   <i name="e_fr_energy">     -3.79523685 </i>
   <i name="e_wo_entrp">     -3.79003325 </i>
   <i name="e_0_energy">     -3.79263505 </i>
  </energy>
  <time name="totalsc">    0.91    0.95</time>
 </calculation>
 <calculation>
  <scstep>
   <time name="dav">    0.04    0.04</time>
   <time name="total">    0.09    0.09</time>
   <energy>
    <i name="alphaZ">      0.25651032 </i>
    <i name="ewald">    -15.21588543 </i>
    <i name="hartreedc">     -0.02413607 </i>
    <i name="XCdc">     -8.50814454 </i>
    <i name="pawpsdc">     17.80462409 </i>
    <i name="pawaedc">     -6.70058075 </i>
    <i name="eentropy">     -0.00520360 </i>
    <i name="bandstr">     -2.00630154 </i>
    <i name="atom">     10.60017774 </i>
    <i name="e_fr_energy">     -3.79893979 </i>
    <i name="e_wo_entrp">     -3.79373619 </i>
    <i name="e_0_energy">     -3.79633799 </i>
   </energy>
  </scstep>
  <scstep>
   <time name="diag">    0.08    0.08</time>
   <time name="diis">    0.00    0.00</time>
   <time name="orth">    0.00    0.00</time>
   <time name="total">    0.13    0.13</time>
   <energy>
    <i name="e_fr_energy">     -3.79892968 </i>
    <i name="e_wo_entrp">     -3.79372608 </i>
    <i name="e_0_energy">     -3.79632788 </i>
   </energy>
  </scstep>
  <scstep>
   <time name="diag">    0.08    0.08</time>
   <time name="diis">    0.00    0.00</time>
   <time name="orth">    0.00    0.00</time>
   <time name="total">    0.13    0.14</time>
   <energy>
    <i name="e_fr_energy">     -3.79892454 </i>
    <i name="e_wo_entrp">     -3.79372094 </i>
    <i name="e_0_energy">     -3.79632274 </i>
   </energy>
  </scstep>
  <scstep>
   <time name="diag">    0.08    0.08</time>
   <time name="diis">    0.00    0.00</time>
   <time name="orth">    0.00    0.00</time>
   <time name="total">    0.14    0.14</time>
   <energy>
    <i name="e_fr_energy">     -3.79892412 </i>
    <i name="e_wo_entrp">     -3.79372052 </i>
    <i name="e_0_energy">     -3.79632232 </i>
   </energy>
  </scstep>
  <scstep>
   <time name="diag">    0.08    0.08</time>
   <time name="diis">    0.00    0.00</time>
   <time name="orth">    0.01    0.01</time>
   <time name="total">    0.13    0.14</time>
   <energy>
    <i name="e_fr_energy">     -3.79892379 </i>
    <i name="e_wo_entrp">     -3.79372018 </i>
    <i name="e_0_energy">     -3.79632198 </i>
   </energy>
  </scstep>
  <scstep>
   <time name="diag">    0.08    0.08</time>
   <time name="diis">    0.00    0.00</time>
   <time name="orth">    0.00    0.00</time>
   <time name="total">    0.13    0.13</time>
   <energy>
    <i name="alphaZ">      0.25651032 </i>
    <i name="ewald">    -15.21588543 </i>
    <i name="hartreedc">     -0.02551973 </i>
    <i name="XCdc">     -8.50574654 </i>
    <i name="pawpsdc">     18.36930594 </i>
    <i name="pawaedc">     -7.26736049 </i>
    <i name="eentropy">     -0.00520360 </i>
    <i name="bandstr">     -2.00520199 </i>
    <i name="atom">     10.60017774 </i>
    <i name="e_fr_energy">     -3.79892379 </i>
    <i name="e_wo_entrp">     -3.79372019 </i>
    <i name="e_0_energy">     -3.79632199 </i>
   </energy>
  </scstep>
  <structure>
   <crystal>
    <varray name="basis" >
     <v>       3.44404456      -0.00000000       0.00000000 </v>
     <v>       0.00000000       3.44404456       0.00000000 </v>
     <v>      -0.00000000      -0.00000000       3.44404456 </v>
    </varray>
    <i name="volume">     40.85133796 </i>
    <varray name="rec_basis" >
     <v>       0.29035629      -0.00000000       0.00000000 </v>
     <v>       0.00000000       0.29035629       0.00000000 </v>
     <v>      -0.00000000      -0.00000000       0.29035629 </v>
    </varray>
   </crystal>
   <varray name="positions" >
    <v>       0.00000000       0.00000000       0.00000000 </v>
    <v>       0.50000000       0.50000000       0.50000000 </v>
   </varray>
  </structure>
  <varray name="forces" >
   <v>       0.00000000      -0.00000000       0.00000000 </v>
   <v>      -0.00000000       0.00000000      -0.00000000 </v>
  </varray>
  <varray name="stress" >
   <v>      -0.75582481       0.00000000       0.00000000 </v>
   <v>      -0.00000000      -0.75582481       0.00000000 </v>
   <v>       0.00000000      -0.00000000      -0.75582481 </v>
  </varray>
  <energy>
   <i name="e_fr_energy">     -3.79892379 </i>
   <i name="e_wo_entrp">     -3.79372019 </i>
   <i name="e_0_energy">     -3.79632199 </i>
  </energy>
  <time name="totalsc">    0.86    0.87</time>
  <eigenvalues>
   <array>
    <dimension dim="1">band</dimension>
    <dimension dim="2">kpoint</dimension>
    <dimension dim="3">spin</dimension>
    <field>eigene</field>
    <field>occ</field>
    <set>
     <set comment="spin 1">
      <set comment="kpoint 1">
       <r>   -3.1858    1.0000 </r>
       <r>    5.8775    0.0000 </r>
       <r>    5.8775    0.0000 </r>
       <r>    5.8775    0.0000 </r>
       <r>    8.1182    0.0000 </r>
       <r>    8.1182    0.0000 </r>
       <r>   13.8520    0.0000 </r>
       <r>   14.9898    0.0000 </r>
      </set>
      <set comment="kpoint 2">
       <r>   -2.9215    1.0000 </r>
       <r>    3.6391    0.0000 </r>
       <r>    6.2157    0.0000 </r>
       <r>    6.2157    0.0000 </r>
       <r>    8.4702    0.0000 </r>
       <r>   10.7544    0.0000 </r>
       <r>   13.6356    0.0000 </r>
       <r>   13.6356    0.0000 </r>
      </set>
      <set comment="kpoint 3">
       <r>   -2.1219    1.0000 </r>
       <r>    1.1559    0.0000 </r>
       <r>    7.2255    0.0000 </r>
       <r>    7.2255    0.0000 </r>
       <r>    9.5262    0.0000 </r>
       <r>   11.1266    0.0000 </r>
       <r>   11.1266    0.0000 </r>
       <r>   12.6785    0.0000 </r>
      </set>
      <set comment="kpoint 4">
       <r>   -0.7695    1.0000 </r>
       <r>   -0.7695    1.0000 </r>
       <r>    8.8860    0.0000 </r>
       <r>    8.8860    0.0000 </r>
       <r>    8.8860    0.0000 </r>
       <r>    8.8860    0.0000 </r>
       <r>   11.2860    0.0000 </r>
       <r>   11.2860    0.0000 </r>
      </set>
      <set comment="kpoint 5">
       <r>   -2.6580    1.0000 </r>
       <r>    3.3507    0.0000 </r>
       <r>    4.7535    0.0000 </r>
       <r>    6.5520    0.0000 </r>
       <r>   10.1069    0.0000 </r>
       <r>   11.6940    0.0000 </r>
       <r>   12.0362    0.0000 </r>
       <r>   13.2039    0.0000 </r>
      </set>
      <set comment="kpoint 6">
       <r>   -1.8633    1.0000 </r>
       <r>    1.3333    0.0000 </r>
       <r>    5.3248    0.0000 </r>
       <r>    7.5539    0.0000 </r>
       <r>    9.0844    0.0000 </r>
       <r>   11.2635    0.0000 </r>
       <r>   11.3214    0.0000 </r>
       <r>   13.3021    0.0000 </r>
      </set>
      <set comment="kpoint 7">
       <r>   -0.5286    1.0000 </r>
       <r>   -0.5286    1.0000 </r>
       <r>    6.8969    0.0000 </r>
       <r>    6.8969    0.0000 </r>
       <r>    9.1888    0.0000 </r>
       <r>    9.1888    0.0000 </r>
       <r>   12.4174    0.0000 </r>
       <r>   12.4174    0.0000 </r>
      </set>
      <set comment="kpoint 8">
       <r>   -1.0964    1.0000 </r>
       <r>    1.3180    0.0000 </r>
       <r>    3.8532    0.0000 </r>
       <r>    6.5908    0.0000 </r>
       <r>    8.5205    0.0000 </r>
       <r>   11.3595    0.0000 </r>
       <r>   11.9885    0.0000 </r>
       <r>   12.7404    0.0000 </r>
      </set>
      <set comment="kpoint 9">
       <r>    0.1171    1.0000 </r>
       <r>    0.1171    1.0000 </r>
       <r>    4.6608    0.0000 </r>
       <r>    4.6608    0.0000 </r>
       <r>   10.0162    0.0000 </r>
       <r>   10.0162    0.0000 </r>
       <r>   12.2980    0.0000 </r>
       <r>   12.2980    0.0000 </r>
      </set>
      <set comment="kpoint 10">
       <r>    0.6311    0.0000 </r>
       <r>    0.6311    0.0000 </r>
       <r>    3.5996    0.0000 </r>
       <r>    3.5996    0.0000 </r>
       <r>   10.7108    0.0000 </r>
       <r>   10.7108    0.0000 </r>
       <r>   12.1814    0.0000 </r>
       <r>   12.1814    0.0000 </r>
      </set>
      <set comment="kpoint 11">
       <r>   -2.3944    1.0000 </r>
       <r>    3.6958    0.0000 </r>
       <r>    3.6958    0.0000 </r>
       <r>    6.2071    0.0000 </r>
       <r>   11.7473    0.0000 </r>
       <r>   11.7473    0.0000 </r>
       <r>   12.0598    0.0000 </r>
       <r>   12.3782    0.0000 </r>
      </set>
      <set comment="kpoint 12">
       <r>   -1.6012    1.0000 </r>
       <r>    1.5606    0.0000 </r>
       <r>    4.7294    0.0000 </r>
       <r>    6.8754    0.0000 </r>
       <r>    8.8160    0.0000 </r>
       <r>    9.9494    0.0000 </r>
       <r>   12.2696    0.0000 </r>
       <r>   13.2772    0.0000 </r>
      </set>
      <set comment="kpoint 13">
       <r>   -0.2757    1.0000 </r>
       <r>   -0.2757    1.0000 </r>
       <r>    6.4439    0.0000 </r>
       <r>    6.4439    0.0000 </r>
       <r>    8.1916    0.0000 </r>
       <r>    8.1916    0.0000 </r>
       <r>   12.7620    0.0000 </r>
       <r>   12.7620    0.0000 </r>
      </set>
      <set comment="kpoint 14">
       <r>   -0.8244    1.0000 </r>
       <r>    1.6648    0.0000 </r>
       <r>    3.6598    0.0000 </r>
       <r>    6.6912    0.0000 </r>
       <r>    7.2919    0.0000 </r>
       <r>    9.8745    0.0000 </r>
       <r>   10.5778    0.0000 </r>
       <r>   12.3816    0.0000 </r>
      </set>
      <set comment="kpoint 15">
       <r>    0.4104    0.2708 </r>
       <r>    0.4104    0.2708 </r>
       <r>    4.6812    0.0000 </r>
       <r>    4.6812    0.0000 </r>
       <r>    8.4664    0.0000 </r>
       <r>    8.4664    0.0000 </r>
       <r>   11.2390    0.0000 </r>
       <r>   11.2390    0.0000 </r>
      </set>
      <set comment="kpoint 16">
       <r>    0.9782    0.0000 </r>
       <r>    0.9782    0.0000 </r>
       <r>    3.6342    0.0000 </r>
       <r>    3.6342    0.0000 </r>
       <r>    9.2197    0.0000 </r>
       <r>    9.2197    0.0000 </r>
       <r>   10.0631    0.0000 </r>
       <r>   10.0631    0.0000 </r>
      </set>
      <set comment="kpoint 17">
       <r>   -0.0248    1.0000 </r>
       <r>    2.7040    0.0000 </r>
       <r>    2.7040    0.0000 </r>
       <r>    6.4341    0.0000 </r>
       <r>    6.8366    0.0000 </r>
       <r>    6.8366    0.0000 </r>
       <r>    9.5942    0.0000 </r>
       <r>   10.9386    0.0000 </r>
      </set>
      <set comment="kpoint 18">
       <r>    1.2338    0.0000 </r>
       <r>    1.2338    0.0000 </r>
       <r>    4.4317    0.0000 </r>
       <r>    4.4317    0.0000 </r>
       <r>    6.6196    0.0000 </r>
       <r>    6.6196    0.0000 </r>
       <r>    9.7283    0.0000 </r>
       <r>    9.7283    0.0000 </r>
      </set>
      <set comment="kpoint 19">
       <r>    2.0187    0.0000 </r>
       <r>    2.0187    0.0000 </r>
       <r>    3.7088    0.0000 </r>
       <r>    3.7088    0.0000 </r>
       <r>    6.1613    0.0000 </r>
       <r>    6.1613    0.0000 </r>
       <r>    9.1115    0.0000 </r>
       <r>    9.1115    0.0000 </r>
      </set>
      <set comment="kpoint 20">
       <r>    3.7494    0.0000 </r>
       <r>    3.7494    0.0000 </r>
       <r>    3.7494    0.0000 </r>
       <r>    3.7494    0.0000 </r>
       <r>    3.7494    0.0000 </r>
       <r>    3.7494    0.0000 </r>
       <r>    8.7262    0.0000 </r>
       <r>    8.7262    0.0000 </r>
      </set>
     </set>
    </set>
   </array>
  </eigenvalues>
  <separator name="orbital magnetization" >
   <v name="MAGDIPOLOUT">      0.00000000      0.00000000      0.00000000</v>
  </separator>
  <dos>
   <i name="efermi">      0.38877869 </i>
   <total>
    <array>
     <dimension dim="1">gridpoints</dimension>
     <dimension dim="2">spin</dimension>
     <field>energy</field>
     <field>total</field>
     <field>integrated</field>
     <set>
      <set comment="spin 1">
       <r>    -4.0946     0.0000     0.0000 </r>
       <r>    -4.0280     0.0000     0.0000 </r>
       <r>    -3.9613     0.0000     0.0000 </r>
       <r>    -3.8947     0.0000     0.0000 </r>
       <r>    -3.8281     0.0000     0.0000 </r>
       <r>    -3.7614     0.0000     0.0000 </r>
       <r>    -3.6948     0.0000     0.0000 </r>
       <r>    -3.6281     0.0000     0.0000 </r>
       <r>    -3.5615     0.0000     0.0000 </r>
       <r>    -3.4948     0.0000     0.0000 </r>
       <r>    -3.4282     0.0000     0.0000 </r>
       <r>    -3.3615     0.0000     0.0000 </r>
       <r>    -3.2949     0.0001     0.0000 </r>
       <r>    -3.2283     0.0159     0.0011 </r>
       <r>    -3.1616     0.0887     0.0070 </r>
       <r>    -3.0950     0.0335     0.0092 </r>
       <r>    -3.0283     0.0018     0.0093 </r>
       <r>    -2.9617     0.1056     0.0164 </r>
       <r>    -2.8950     0.5377     0.0522 </r>
       <r>    -2.8284     0.1857     0.0646 </r>
       <r>    -2.7617     0.0063     0.0650 </r>
       <r>    -2.6951     0.2423     0.0811 </r>
       <r>    -2.6285     1.0859     0.1535 </r>
       <r>    -2.5618     0.3309     0.1756 </r>
       <r>    -2.4952     0.0079     0.1761 </r>
       <r>    -2.4285     0.1832     0.1883 </r>
       <r>    -2.3619     0.7268     0.2367 </r>
       <r>    -2.2952     0.1962     0.2498 </r>
       <r>    -2.2286     0.0039     0.2501 </r>
       <r>    -2.1619     0.1063     0.2572 </r>
       <r>    -2.0953     0.5380     0.2930 </r>
       <r>    -2.0287     0.1847     0.3053 </r>
       <r>    -1.9620     0.0122     0.3061 </r>
       <r>    -1.8954     0.5976     0.3460 </r>
       <r>    -1.8287     2.1800     0.4912 </r>
       <r>    -1.7621     0.5412     0.5273 </r>
       <r>    -1.6954     0.0198     0.5286 </r>
       <r>    -1.6288     0.7116     0.5761 </r>
       <r>    -1.5622     2.1602     0.7200 </r>
       <r>    -1.4955     0.4452     0.7497 </r>
       <r>    -1.4289     0.0047     0.7500 </r>
       <r>    -1.3622     0.0000     0.7500 </r>
       <r>    -1.2956     0.0000     0.7500 </r>
       <r>    -1.2289     0.0001     0.7500 </r>
       <r>    -1.1623     0.0517     0.7535 </r>
       <r>    -1.0956     0.7953     0.8065 </r>
       <r>    -1.0290     0.7727     0.8580 </r>
       <r>    -0.9624     0.0473     0.8611 </r>
       <r>    -0.8957     0.0732     0.8660 </r>
       <r>    -0.8291     1.4591     0.9632 </r>
       <r>    -0.7624     2.1529     1.1067 </r>
       <r>    -0.6958     0.4669     1.1378 </r>
       <r>    -0.6291     0.0233     1.1394 </r>
       <r>    -0.5625     0.5567     1.1765 </r>
       <r>    -0.4958     2.1808     1.3218 </r>
       <r>    -0.4292     0.5814     1.3606 </r>
       <r>    -0.3626     0.0316     1.3627 </r>
       <r>    -0.2959     0.9233     1.4242 </r>
       <r>    -0.2293     2.0727     1.5623 </r>
       <r>    -0.1626     0.3127     1.5832 </r>
       <r>    -0.0960     0.0268     1.5850 </r>
       <r>    -0.0293     0.4748     1.6166 </r>
       <r>     0.0373     0.6083     1.6572 </r>
       <r>     0.1039     1.1871     1.7363 </r>
       <r>     0.1706     1.9339     1.8652 </r>
       <r>     0.2372     0.2161     1.8796 </r>
       <r>     0.3039     0.0098     1.8802 </r>
       <r>     0.3705     0.8581     1.9374 </r>
       <r>     0.4372     4.3077     2.2245 </r>
       <r>     0.5038     1.4673     2.3223 </r>
       <r>     0.5705     0.0633     2.3265 </r>
       <r>     0.6371     0.4372     2.3556 </r>
       <r>     0.7037     0.3438     2.3785 </r>
       <r>     0.7704     0.0166     2.3796 </r>
       <r>     0.8370     0.0001     2.3796 </r>
       <r>     0.9037     0.0292     2.3816 </r>
       <r>     0.9703     0.6580     2.4254 </r>
       <r>     1.0370     0.9000     2.4854 </r>
       <r>     1.1036     0.1381     2.4946 </r>
       <r>     1.1703     0.6106     2.5353 </r>
       <r>     1.2369     1.9671     2.6664 </r>
       <r>     1.3035     2.6873     2.8455 </r>
       <r>     1.3702     3.2355     3.0611 </r>
       <r>     1.4368     0.6056     3.1015 </r>
       <r>     1.5035     0.1827     3.1137 </r>
       <r>     1.5701     1.8571     3.2374 </r>
       <r>     1.6368     1.9621     3.3682 </r>
       <r>     1.7034     2.2147     3.5158 </r>
       <r>     1.7701     0.4530     3.5460 </r>
       <r>     1.8367     0.0048     3.5463 </r>
       <r>     1.9033     0.0009     3.5464 </r>
       <r>     1.9700     0.1395     3.5557 </r>
       <r>     2.0366     1.0170     3.6234 </r>
       <r>     2.1033     0.4959     3.6565 </r>
       <r>     2.1699     0.0139     3.6574 </r>
       <r>     2.2366     0.0000     3.6574 </r>
       <r>     2.3032     0.0000     3.6574 </r>
       <r>     2.3698     0.0000     3.6574 </r>
       <r>     2.4365     0.0000     3.6574 </r>
       <r>     2.5031     0.0000     3.6574 </r>
       <r>     2.5698     0.0002     3.6574 </r>
       <r>     2.6364     0.0622     3.6616 </r>
       <r>     2.7031     1.0266     3.7300 </r>
       <r>     2.7697     1.0641     3.8009 </r>
       <r>     2.8364     0.0698     3.8055 </r>
       <r>     2.9030     0.0002     3.8056 </r>
       <r>     2.9696     0.0000     3.8056 </r>
       <r>     3.0363     0.0000     3.8056 </r>
       <r>     3.1029     0.0000     3.8056 </r>
       <r>     3.1696     0.0000     3.8056 </r>
       <r>     3.2362     0.0010     3.8056 </r>
       <r>     3.3029     0.1458     3.8153 </r>
       <r>     3.3695     1.0247     3.8836 </r>
       <r>     3.4362     0.4826     3.9158 </r>
       <r>     3.5028     0.0158     3.9169 </r>
       <r>     3.5694     0.2555     3.9339 </r>
       <r>     3.6361     2.6801     4.1125 </r>
       <r>     3.7027     5.3623     4.4699 </r>
       <r>     3.7694     2.7510     4.6532 </r>
       <r>     3.8360     0.8574     4.7103 </r>
       <r>     3.9027     1.0159     4.7780 </r>
       <r>     3.9693     0.1340     4.7870 </r>
       <r>     4.0360     0.0009     4.7870 </r>
       <r>     4.1026     0.0000     4.7870 </r>
       <r>     4.1692     0.0000     4.7870 </r>
       <r>     4.2359     0.0000     4.7870 </r>
       <r>     4.3025     0.0004     4.7871 </r>
       <r>     4.3692     0.1275     4.7956 </r>
       <r>     4.4358     1.6921     4.9083 </r>
       <r>     4.5025     1.4386     5.0042 </r>
       <r>     4.5691     0.0966     5.0106 </r>
       <r>     4.6357     1.4531     5.1075 </r>
       <r>     4.7024     7.1645     5.5850 </r>
       <r>     4.7690     5.3314     5.9403 </r>
       <r>     4.8357     1.0141     6.0078 </r>
       <r>     4.9023     0.0212     6.0093 </r>
       <r>     4.9690     0.0000     6.0093 </r>
       <r>     5.0356     0.0000     6.0093 </r>
       <r>     5.1023     0.0000     6.0093 </r>
       <r>     5.1689     0.0000     6.0093 </r>
       <r>     5.2355     0.0193     6.0105 </r>
       <r>     5.3022     0.8512     6.0673 </r>
       <r>     5.3688     2.1086     6.2078 </r>
       <r>     5.4355     0.3525     6.2313 </r>
       <r>     5.5021     0.0029     6.2315 </r>
       <r>     5.5688     0.0000     6.2315 </r>
       <r>     5.6354     0.0000     6.2315 </r>
       <r>     5.7021     0.0000     6.2315 </r>
       <r>     5.7687     0.0004     6.2315 </r>
       <r>     5.8353     0.0480     6.2347 </r>
       <r>     5.9020     0.2663     6.2525 </r>
       <r>     5.9686     0.0999     6.2591 </r>
       <r>     6.0353     0.0024     6.2593 </r>
       <r>     6.1019     0.0798     6.2646 </r>
       <r>     6.1686     1.1936     6.3441 </r>
       <r>     6.2352     2.4196     6.5054 </r>
       <r>     6.3018     0.7363     6.5545 </r>
       <r>     6.3685     0.1065     6.5616 </r>
       <r>     6.4351     1.8198     6.6828 </r>
       <r>     6.5018     2.4761     6.8479 </r>
       <r>     6.5684     1.8769     6.9730 </r>
       <r>     6.6351     3.7446     7.2225 </r>
       <r>     6.7017     3.1289     7.4310 </r>
       <r>     6.7684     1.3283     7.5196 </r>
       <r>     6.8350     1.6112     7.6269 </r>
       <r>     6.9016     4.9392     7.9561 </r>
       <r>     6.9683     2.2389     8.1053 </r>
       <r>     7.0349     0.0868     8.1111 </r>
       <r>     7.1016     0.0005     8.1111 </r>
       <r>     7.1682     0.0880     8.1170 </r>
       <r>     7.2349     1.0968     8.1901 </r>
       <r>     7.3015     2.4795     8.3553 </r>
       <r>     7.3682     1.2851     8.4410 </r>
       <r>     7.4348     0.0530     8.4445 </r>
       <r>     7.5014     0.2291     8.4598 </r>
       <r>     7.5681     1.9578     8.5903 </r>
       <r>     7.6347     1.1095     8.6642 </r>
       <r>     7.7014     0.0370     8.6667 </r>
       <r>     7.7680     0.0001     8.6667 </r>
       <r>     7.8347     0.0000     8.6667 </r>
       <r>     7.9013     0.0000     8.6667 </r>
       <r>     7.9680     0.0000     8.6667 </r>
       <r>     8.0346     0.0025     8.6668 </r>
       <r>     8.1012     0.1027     8.6737 </r>
       <r>     8.1679     0.9865     8.7394 </r>
       <r>     8.2345     2.1450     8.8824 </r>
       <r>     8.3012     0.3723     8.9072 </r>
       <r>     8.3678     0.0225     8.9087 </r>
       <r>     8.4345     1.3459     8.9984 </r>
       <r>     8.5011     5.3775     9.3568 </r>
       <r>     8.5677     2.2598     9.5074 </r>
       <r>     8.6344     0.1676     9.5185 </r>
       <r>     8.7010     0.0678     9.5231 </r>
       <r>     8.7677     0.4635     9.5539 </r>
       <r>     8.8343     2.1935     9.7001 </r>
       <r>     8.9010     1.9675     9.8312 </r>
       <r>     8.9676     0.5712     9.8693 </r>
       <r>     9.0343     0.3007     9.8893 </r>
       <r>     9.1009     2.6422    10.0654 </r>
       <r>     9.1675     2.9793    10.2640 </r>
       <r>     9.2342     3.1951    10.4769 </r>
       <r>     9.3008     0.8812    10.5357 </r>
       <r>     9.3675     0.0207    10.5370 </r>
       <r>     9.4341     0.0039    10.5373 </r>
       <r>     9.5008     0.1975    10.5505 </r>
       <r>     9.5674     0.7799    10.6024 </r>
       <r>     9.6341     0.8313    10.6578 </r>
       <r>     9.7007     0.8555    10.7148 </r>
       <r>     9.7673     2.1657    10.8592 </r>
       <r>     9.8340     0.8631    10.9167 </r>
       <r>     9.9006     2.4319    11.0788 </r>
       <r>     9.9673     3.0642    11.2830 </r>
       <r>    10.0339     3.4060    11.5100 </r>
       <r>    10.1006     2.7964    11.6963 </r>
       <r>    10.1672     1.1459    11.7727 </r>
       <r>    10.2338     0.0758    11.7778 </r>
       <r>    10.3005     0.0003    11.7778 </r>
       <r>    10.3671     0.0000    11.7778 </r>
       <r>    10.4338     0.0001    11.7778 </r>
       <r>    10.5004     0.0478    11.7810 </r>
       <r>    10.5671     1.2230    11.8625 </r>
       <r>    10.6337     1.8867    11.9882 </r>
       <r>    10.7004     0.5487    12.0248 </r>
       <r>    10.7670     0.9481    12.0880 </r>
       <r>    10.8336     0.3383    12.1105 </r>
       <r>    10.9003     0.1638    12.1214 </r>
       <r>    10.9669     0.7217    12.1695 </r>
       <r>    11.0336     0.2380    12.1854 </r>
       <r>    11.1002     0.3768    12.2105 </r>
       <r>    11.1669     1.2232    12.2920 </r>
       <r>    11.2335     3.7236    12.5402 </r>
       <r>    11.3002     7.1036    13.0136 </r>
       <r>    11.3668     4.0302    13.2822 </r>
       <r>    11.4334     1.0125    13.3496 </r>
       <r>    11.5001     0.0330    13.3518 </r>
       <r>    11.5667     0.0003    13.3519 </r>
       <r>    11.6334     0.0731    13.3567 </r>
       <r>    11.7000     1.0742    13.4283 </r>
       <r>    11.7667     2.0608    13.5657 </r>
       <r>    11.8333     0.6652    13.6100 </r>
       <r>    11.9000     0.0270    13.6118 </r>
       <r>    11.9666     0.4811    13.6439 </r>
       <r>    12.0332     2.0337    13.7794 </r>
       <r>    12.0999     1.7261    13.8944 </r>
       <r>    12.1665     0.4807    13.9265 </r>
       <r>    12.2332     1.1051    14.0001 </r>
       <r>    12.2998     3.9096    14.2607 </r>
       <r>    12.3665     3.8772    14.5190 </r>
       <r>    12.4331     4.7005    14.8323 </r>
       <r>    12.4997     1.3700    14.9236 </r>
       <r>    12.5664     0.0354    14.9260 </r>
       <r>    12.6330     0.0846    14.9316 </r>
       <r>    12.6997     0.8576    14.9888 </r>
       <r>    12.7663     2.9948    15.1883 </r>
       <r>    12.8330     1.8155    15.3093 </r>
       <r>    12.8996     0.0819    15.3148 </r>
       <r>    12.9663     0.0002    15.3148 </r>
       <r>    13.0329     0.0000    15.3148 </r>
       <r>    13.0995     0.0026    15.3150 </r>
       <r>    13.1662     0.2390    15.3309 </r>
       <r>    13.2328     1.5141    15.4318 </r>
       <r>    13.2995     3.9270    15.6935 </r>
       <r>    13.3661     2.5165    15.8612 </r>
       <r>    13.4328     0.1366    15.8703 </r>
       <r>    13.4994     0.0005    15.8704 </r>
       <r>    13.5661     0.0410    15.8731 </r>
       <r>    13.6327     0.7385    15.9223 </r>
       <r>    13.6993     0.8282    15.9775 </r>
       <r>    13.7660     0.0603    15.9815 </r>
       <r>    13.8326     0.0398    15.9842 </r>
       <r>    13.8993     0.0858    15.9899 </r>
       <r>    13.9659     0.0125    15.9907 </r>
       <r>    14.0326     0.0001    15.9907 </r>
       <r>    14.0992     0.0000    15.9907 </r>
       <r>    14.1658     0.0000    15.9907 </r>
       <r>    14.2325     0.0000    15.9907 </r>
       <r>    14.2991     0.0000    15.9907 </r>
       <r>    14.3658     0.0000    15.9907 </r>
       <r>    14.4324     0.0000    15.9907 </r>
       <r>    14.4991     0.0000    15.9907 </r>
       <r>    14.5657     0.0000    15.9907 </r>
       <r>    14.6324     0.0000    15.9907 </r>
       <r>    14.6990     0.0000    15.9907 </r>
       <r>    14.7656     0.0000    15.9907 </r>
       <r>    14.8323     0.0000    15.9907 </r>
       <r>    14.8989     0.0007    15.9908 </r>
       <r>    14.9656     0.0335    15.9930 </r>
       <r>    15.0322     0.0887    15.9989 </r>
       <r>    15.0989     0.0159    16.0000 </r>
       <r>    15.1655     0.0001    16.0000 </r>
       <r>    15.2322     0.0000    16.0000 </r>
       <r>    15.2988     0.0000    16.0000 </r>
       <r>    15.3654     0.0000    16.0000 </r>
       <r>    15.4321     0.0000    16.0000 </r>
       <r>    15.4987     0.0000    16.0000 </r>
       <r>    15.5654     0.0000    16.0000 </r>
       <r>    15.6320     0.0000    16.0000 </r>
       <r>    15.6987     0.0000    16.0000 </r>
       <r>    15.7653     0.0000    16.0000 </r>
       <r>    15.8320     0.0000    16.0000 </r>
       <r>    15.8986     0.0000    16.0000 </r>
      </set>
     </set>
    </array>
   </total>
  </dos>
 </calculation>
 <structure name="finalpos" >
  <crystal>
   <varray name="basis" >
    <v>       3.44404456      -0.00000000       0.00000000 </v>
    <v>       0.00000000       3.44404456       0.00000000 </v>
    <v>      -0.00000000      -0.00000000       3.44404456 </v>
   </varray>
   <i name="volume">     40.85133796 </i>
   <varray name="rec_basis" >
    <v>       0.29035629      -0.00000000       0.00000000 </v>
    <v>       0.00000000       0.29035629       0.00000000 </v>
    <v>      -0.00000000      -0.00000000       0.29035629 </v>
   </varray>
  </crystal>
  <varray name="positions" >
   <v>       0.00000000       0.00000000       0.00000000 </v>
   <v>       0.50000000       0.50000000       0.50000000 </v>
  </varray>
 </structure>
</modeling>
