unknown system                          
           1
     3.510040    0.000000    0.000000
     0.000000    3.510040    0.000000
     0.000000    0.000000    3.510040
   Li
     2
Direct configuration=     1
   0.00000000  0.00000000  0.00000000
   0.50000000  0.50000000  0.50000000
unknown system                          
           1
     3.492179   -0.000000    0.000000
     0.000000    3.492179    0.000000
    -0.000000   -0.000000    3.492179
   Li
     2
Direct configuration=     2
   0.00000000  0.00000000  0.00000000
   0.50000000  0.50000000  0.50000000
unknown system                          
           1
     3.444045   -0.000000    0.000000
     0.000000    3.444045    0.000000
    -0.000000   -0.000000    3.444045
   Li
     2
Direct configuration=     3
   0.00000000  0.00000000  0.00000000
   0.50000000  0.50000000  0.50000000
