504
Lattice="-4.166030694342068e-16 18.6558219398172 0.0 7.764933388889874 18.32992290740971 0.0 0.0 0.0 -45.77182202407539" Properties=species:S:1:pos:R:3:spacegroup_kinds:I:1:forces:R:3:stresses:R:6:energies:R:1 spacegroup="P m n 21" unit_cell=conventional occupancy="_JSON {\"0\": {\"Li\": 1.0}, \"1\": {\"Li\": 1.0}, \"2\": {\"P\": 1.0}, \"3\": {\"S\": 0.97}, \"4\": {\"S\": 0.98}, \"5\": {\"S\": 0.99}}" energy=-109.70261048781256 stress="0.01682334142261439 -0.00011534175286441215 2.420158935112309e-05 -0.00011534175286441215 0.04842999524199078 0.00012298111240437347 2.420158935112309e-05 0.00012298111240437347 0.02279459297149841" free_energy=-109.70261048781256 pbc="T T T"
Li       3.16046918      13.48395100      -3.73513505        1       0.00227750       0.00187734      -0.11295720       0.00002448       0.00001232       0.00002530       0.00000081      -0.00000022      -0.00000064      -0.04983314
P        3.16046918      16.64431206      -1.62356205        2      -0.02721487       0.01359790      -0.00794300       0.00003015       0.00003302       0.00004076       0.00000598      -0.00000266      -0.00000077      -0.10272676
S        4.85591369      15.89826220      -0.64271440        3      -0.11605606      -0.11216264       0.03071783       0.00002727       0.00002456       0.00001632      -0.00001368       0.00000089       0.00000095      -0.06239126
S        3.16046918      15.98441727      -3.49345638        4       0.00044132       0.03727371      -0.00219769       0.00002197       0.00001240       0.00004817       0.00000790      -0.00000004      -0.00000061      -0.07295326
S        3.16046918      12.46867012      -1.51291071        5       0.00913004      -0.09258445      -0.01775440       0.00001031       0.00002937       0.00000921       0.00000104       0.00000061       0.00000040      -0.04357098
Li       3.16046918      13.48395100      -8.06052033        1       0.00227750       0.00188093      -0.11296325       0.00002448       0.00001232       0.00002530       0.00000081      -0.00000022      -0.00000064      -0.04983191
P        3.16046918      16.64431490      -5.94887093        2      -0.01603218      -0.00384690       0.05241836       0.00004618       0.00003532       0.00004615       0.00000237      -0.00000117      -0.00000034      -0.12361527
S        4.79755664      15.70679782      -4.97222354        3       0.63542324       2.12227567       0.06040366       0.00005014       0.00024450       0.00001294       0.00000046       0.00000191       0.00005099      -0.46268478
S        3.16046918      15.98441727      -7.81884166        4       0.00044132       0.03725560      -0.00224237       0.00002197       0.00001240       0.00004817       0.00000789      -0.00000004      -0.00000061      -0.07294624
S        3.16046918      12.46868426      -5.83823041        5       0.00610556      -0.08226780       0.08079528       0.00002703       0.00003507       0.00002102       0.00000421       0.00000041       0.00000026      -0.06786223
Li       3.16046918      13.48395100     -12.38590561        1       0.00227750       0.00188093      -0.11296325       0.00002448       0.00001232       0.00002530       0.00000081      -0.00000022      -0.00000064      -0.04983191
P        3.16046918      16.64431490     -10.27425621        2      -0.01603218      -0.00384690       0.05241836       0.00004618       0.00003532       0.00004615       0.00000237      -0.00000117      -0.00000034      -0.12361527
S        4.79755664      15.70679782      -9.29760882        3       0.63542324       2.12227567       0.06040366       0.00005014       0.00024450       0.00001294       0.00000046       0.00000191       0.00005099      -0.46268478
S        3.16046918      15.98441727     -12.14422694        4       0.00044132       0.03725560      -0.00224237       0.00002197       0.00001240       0.00004817       0.00000789      -0.00000004      -0.00000061      -0.07294624
S        3.16046918      12.46868426     -10.16361569        5       0.00610556      -0.08226780       0.08079528       0.00002703       0.00003507       0.00002102       0.00000421       0.00000041       0.00000026      -0.06786223
Li       3.16046918      13.48395100     -16.71129089        1       0.00227750       0.00188093      -0.11296325       0.00002448       0.00001232       0.00002530       0.00000081      -0.00000022      -0.00000064      -0.04983191
P        3.16046918      16.64431490     -14.59964148        2      -0.01603218      -0.00384690       0.05241836       0.00004618       0.00003532       0.00004615       0.00000237      -0.00000117      -0.00000034      -0.12361527
S        4.79755664      15.70679782     -13.62299410        3       0.63542324       2.12227567       0.06040366       0.00005014       0.00024450       0.00001294       0.00000046       0.00000191       0.00005099      -0.46268478
S        3.16046918      15.98441727     -16.46961222        4       0.00044132       0.03725560      -0.00224237       0.00002197       0.00001240       0.00004817       0.00000789      -0.00000004      -0.00000061      -0.07294624
S        3.16046918      12.46868426     -14.48900097        5       0.00610556      -0.08226780       0.08079528       0.00002703       0.00003507       0.00002102       0.00000421       0.00000041       0.00000026      -0.06786223
Li       3.16046918      13.48395100     -21.03667617        1       0.00227750       0.00188093      -0.11296325       0.00002448       0.00001232       0.00002530       0.00000081      -0.00000022      -0.00000064      -0.04983191
P        3.16046918      16.64431490     -18.92502676        2      -0.01603218      -0.00384690       0.05241836       0.00004618       0.00003532       0.00004615       0.00000237      -0.00000117      -0.00000034      -0.12361527
S        4.79755664      15.70679782     -17.94837937        3       0.63542324       2.12227567       0.06040366       0.00005014       0.00024450       0.00001294       0.00000046       0.00000191       0.00005099      -0.46268478
S        3.16046918      15.98441727     -20.79499750        4       0.00044132       0.03725560      -0.00224237       0.00002197       0.00001240       0.00004817       0.00000789      -0.00000004      -0.00000061      -0.07294624
S        3.16046918      12.46868426     -18.81438625        5       0.00610556      -0.08226780       0.08079528       0.00002703       0.00003507       0.00002102       0.00000421       0.00000041       0.00000026      -0.06786223
Li       3.16046918      13.48395100     -25.36206145        1       0.00227750       0.00188093      -0.11296325       0.00002448       0.00001232       0.00002530       0.00000081      -0.00000022      -0.00000064      -0.04983191
P        3.16046918      16.64431490     -23.25041204        2      -0.01603218      -0.00384690       0.05241836       0.00004618       0.00003532       0.00004615       0.00000237      -0.00000117      -0.00000034      -0.12361527
S        4.79755664      15.70679782     -22.27376465        3       0.63542324       2.12227567       0.06040366       0.00005014       0.00024450       0.00001294       0.00000046       0.00000191       0.00005099      -0.46268478
S        3.16046918      15.98441727     -25.12038278        4       0.00044132       0.03725560      -0.00224237       0.00002197       0.00001240       0.00004817       0.00000789      -0.00000004      -0.00000061      -0.07294624
S        3.16046918      12.46868426     -23.13977153        5       0.00610556      -0.08226780       0.08079528       0.00002703       0.00003507       0.00002102       0.00000421       0.00000041       0.00000026      -0.06786223
Li       3.16046918      13.48395100     -29.68744673        1       0.00227750       0.00188093      -0.11296325       0.00002448       0.00001232       0.00002530       0.00000081      -0.00000022      -0.00000064      -0.04983191
P        3.16046918      16.64431490     -27.57579732        2      -0.01603218      -0.00384690       0.05241836       0.00004618       0.00003532       0.00004615       0.00000237      -0.00000117      -0.00000034      -0.12361527
S        4.79755664      15.70679782     -26.59914993        3       0.63542324       2.12227567       0.06040366       0.00005014       0.00024450       0.00001294       0.00000046       0.00000191       0.00005099      -0.46268478
S        3.16046918      15.98441727     -29.44576805        4       0.00044132       0.03725560      -0.00224237       0.00002197       0.00001240       0.00004817       0.00000789      -0.00000004      -0.00000061      -0.07294624
S        3.16046918      12.46868426     -27.46515681        5       0.00610556      -0.08226780       0.08079528       0.00002703       0.00003507       0.00002102       0.00000421       0.00000041       0.00000026      -0.06786223
Li       3.16046918      13.48396008     -34.01275093        1      -0.00547814      -0.00815651      -0.00682165       0.00000903       0.00001029       0.00001370       0.00000090       0.00000065      -0.00000004      -0.02293645
P        3.16046918      16.64431490     -31.90118260        2      -0.01603218      -0.00386762       0.05236943       0.00004618       0.00003532       0.00004615       0.00000237      -0.00000117      -0.00000034      -0.12362301
S        4.79755664      15.70679782     -30.92453521        3       0.63542324       2.12227567       0.06040366       0.00005014       0.00024450       0.00001294       0.00000046       0.00000191       0.00005099      -0.46268478
S        3.16046918      15.98441249     -33.77106641        4       0.00401219       0.04728334       0.14023124       0.00000737       0.00001153       0.00002981       0.00000744      -0.00000044      -0.00000007      -0.04350173
S        3.16046918      12.46868426     -31.79054209        5       0.00610556      -0.08226330       0.08078733       0.00002703       0.00003507       0.00002102       0.00000421       0.00000041       0.00000026      -0.06786383
Li       5.09994387      19.81981396      -0.62500000        0       0.32608048      -0.25095296       0.53044184       0.00003042       0.00003199       0.00005653      -0.00002416       0.00003311      -0.00001766      -0.12398067
Li       5.16178405      16.90182216      -4.94622515        0      -0.68554818      -2.08144702      -0.10005042       0.00004718       0.00024705       0.00000904       0.00000384       0.00000160       0.00006388      -0.45511942
Li       7.04293510      22.64892156      -1.84028634        1       0.00112604       0.00984870      -0.00003559       0.00000930       0.00000982       0.00001259       0.00000236       0.00000057       0.00000020      -0.02146828
Li       3.16046918      19.70255831      -3.73513505        1       0.00227750       0.00187734      -0.11295720       0.00002448       0.00001232       0.00002530       0.00000081      -0.00000022      -0.00000064      -0.04983314
P        3.16046918      22.86291937      -1.62356205        2      -0.00908596      -0.00526217      -0.02010500       0.00003112       0.00003200       0.00003870       0.00000278       0.00000041      -0.00000068      -0.10038118
S        5.40584686      18.79057116      -4.92850206        3      -0.57674872       2.04837139      -0.05047491       0.00005210       0.00024598       0.00001410       0.00000027       0.00000360      -0.00004999      -0.43449715
S        4.85591369      22.11686952      -0.64271440        3      -0.50858175       0.32126751       2.04375967       0.00002724       0.00001958       0.00020876       0.00002776      -0.00003663      -0.00001267      -0.35030233
S        3.16046918      22.20302458      -3.49345638        4       0.00044132       0.03727371      -0.00219769       0.00002197       0.00001240       0.00004817       0.00000790      -0.00000004      -0.00000061      -0.07295326
S        7.04293510      21.63364575      -4.06249518        5       0.00610527      -0.08226331      -0.08078732       0.00002703       0.00003507       0.00002102      -0.00000421      -0.00000041       0.00000026      -0.06786382
S        3.16046918      18.68727744      -1.51291071        5      -0.00200128      -0.11347915       0.02911682       0.00001074       0.00003088       0.00001676      -0.00000233      -0.00000118       0.00000120      -0.05136837
Li       5.04161945      20.01616919      -4.95450044        0       0.63408220      -2.04222181       0.09910573       0.00004731       0.00024521       0.00000925      -0.00000333       0.00000172      -0.00006235      -0.41988434
Li       5.16178405      16.90182216      -9.27161043        0      -0.68554818      -2.08144702      -0.10005042       0.00004718       0.00024705       0.00000904       0.00000384       0.00000160       0.00006388      -0.45511942
Li       7.04293510      22.64891248      -6.16559054        1       0.00227721       0.00188093       0.11296324       0.00002448       0.00001232       0.00002530      -0.00000081       0.00000022      -0.00000064      -0.04983191
Li       3.16046918      19.70255831      -8.06052033        1       0.00227750       0.00188093      -0.11296325       0.00002448       0.00001232       0.00002530       0.00000081      -0.00000022      -0.00000064      -0.04983191
P        3.16046918      22.86292221      -5.94887093        2      -0.01603218      -0.00384690       0.05241836       0.00004618       0.00003532       0.00004615       0.00000237      -0.00000117      -0.00000034      -0.12361527
S        5.40584686      18.79057116      -9.25388734        3      -0.57674872       2.04837139      -0.05047491       0.00005210       0.00024598       0.00001410       0.00000027       0.00000360      -0.00004999      -0.43449715
S        4.79755664      21.92540514      -4.97222354        3       0.63542324       2.12227567       0.06040366       0.00005014       0.00024450       0.00001294       0.00000046       0.00000191       0.00005099      -0.46268478
S        3.16046918      22.20302458      -7.81884166        4       0.00044132       0.03725560      -0.00224237       0.00002197       0.00001240       0.00004817       0.00000789      -0.00000004      -0.00000061      -0.07294624
S        7.04293510      21.63364575      -8.38788046        5       0.00610527      -0.08226780      -0.08079527       0.00002703       0.00003507       0.00002102      -0.00000421      -0.00000041       0.00000026      -0.06786222
S        3.16046918      18.68729158      -5.83823041        5       0.00610556      -0.08226780       0.08079528       0.00002703       0.00003507       0.00002102       0.00000421       0.00000041       0.00000026      -0.06786223
Li       5.04161945      20.01616919      -9.27988572        0       0.63408220      -2.04222181       0.09910573       0.00004731       0.00024521       0.00000925      -0.00000333       0.00000172      -0.00006235      -0.41988434
Li       5.16178405      16.90182216     -13.59699571        0      -0.68554818      -2.08144702      -0.10005042       0.00004718       0.00024705       0.00000904       0.00000384       0.00000160       0.00006388      -0.45511942
Li       7.04293510      22.64891248     -10.49097582        1       0.00227721       0.00188093       0.11296324       0.00002448       0.00001232       0.00002530      -0.00000081       0.00000022      -0.00000064      -0.04983191
Li       3.16046918      19.70255831     -12.38590561        1       0.00227750       0.00188093      -0.11296325       0.00002448       0.00001232       0.00002530       0.00000081      -0.00000022      -0.00000064      -0.04983191
P        3.16046918      22.86292221     -10.27425621        2      -0.01603218      -0.00384690       0.05241836       0.00004618       0.00003532       0.00004615       0.00000237      -0.00000117      -0.00000034      -0.12361527
S        5.40584686      18.79057116     -13.57927262        3      -0.57674872       2.04837139      -0.05047491       0.00005210       0.00024598       0.00001410       0.00000027       0.00000360      -0.00004999      -0.43449715
S        4.79755664      21.92540514      -9.29760882        3       0.63542324       2.12227567       0.06040366       0.00005014       0.00024450       0.00001294       0.00000046       0.00000191       0.00005099      -0.46268478
S        3.16046918      22.20302458     -12.14422694        4       0.00044132       0.03725560      -0.00224237       0.00002197       0.00001240       0.00004817       0.00000789      -0.00000004      -0.00000061      -0.07294624
S        7.04293510      21.63364575     -12.71326574        5       0.00610527      -0.08226780      -0.08079527       0.00002703       0.00003507       0.00002102      -0.00000421      -0.00000041       0.00000026      -0.06786222
S        3.16046918      18.68729158     -10.16361569        5       0.00610556      -0.08226780       0.08079528       0.00002703       0.00003507       0.00002102       0.00000421       0.00000041       0.00000026      -0.06786223
Li       5.04161945      20.01616919     -13.60527100        0       0.63408220      -2.04222181       0.09910573       0.00004731       0.00024521       0.00000925      -0.00000333       0.00000172      -0.00006235      -0.41988434
Li       5.16178405      16.90182216     -17.92238099        0      -0.68554818      -2.08144702      -0.10005042       0.00004718       0.00024705       0.00000904       0.00000384       0.00000160       0.00006388      -0.45511942
Li       7.04293510      22.64891248     -14.81636110        1       0.00227721       0.00188093       0.11296324       0.00002448       0.00001232       0.00002530      -0.00000081       0.00000022      -0.00000064      -0.04983191
Li       3.16046918      19.70255831     -16.71129089        1       0.00227750       0.00188093      -0.11296325       0.00002448       0.00001232       0.00002530       0.00000081      -0.00000022      -0.00000064      -0.04983191
P        3.16046918      22.86292221     -14.59964148        2      -0.01603218      -0.00384690       0.05241836       0.00004618       0.00003532       0.00004615       0.00000237      -0.00000117      -0.00000034      -0.12361527
S        5.40584686      18.79057116     -17.90465789        3      -0.57674872       2.04837139      -0.05047491       0.00005210       0.00024598       0.00001410       0.00000027       0.00000360      -0.00004999      -0.43449715
S        4.79755664      21.92540514     -13.62299410        3       0.63542324       2.12227567       0.06040366       0.00005014       0.00024450       0.00001294       0.00000046       0.00000191       0.00005099      -0.46268478
S        3.16046918      22.20302458     -16.46961222        4       0.00044132       0.03725560      -0.00224237       0.00002197       0.00001240       0.00004817       0.00000789      -0.00000004      -0.00000061      -0.07294624
S        7.04293510      21.63364575     -17.03865102        5       0.00610527      -0.08226780      -0.08079527       0.00002703       0.00003507       0.00002102      -0.00000421      -0.00000041       0.00000026      -0.06786222
S        3.16046918      18.68729158     -14.48900097        5       0.00610556      -0.08226780       0.08079528       0.00002703       0.00003507       0.00002102       0.00000421       0.00000041       0.00000026      -0.06786223
Li       5.04161945      20.01616919     -17.93065628        0       0.63408220      -2.04222181       0.09910573       0.00004731       0.00024521       0.00000925      -0.00000333       0.00000172      -0.00006235      -0.41988434
Li       5.16178405      16.90182216     -22.24776627        0      -0.68554818      -2.08144702      -0.10005042       0.00004718       0.00024705       0.00000904       0.00000384       0.00000160       0.00006388      -0.45511942
Li       7.04293510      22.64891248     -19.14174638        1       0.00227721       0.00188093       0.11296324       0.00002448       0.00001232       0.00002530      -0.00000081       0.00000022      -0.00000064      -0.04983191
Li       3.16046918      19.70255831     -21.03667617        1       0.00227750       0.00188093      -0.11296325       0.00002448       0.00001232       0.00002530       0.00000081      -0.00000022      -0.00000064      -0.04983191
P        3.16046918      22.86292221     -18.92502676        2      -0.01603218      -0.00384690       0.05241836       0.00004618       0.00003532       0.00004615       0.00000237      -0.00000117      -0.00000034      -0.12361527
S        5.40584686      18.79057116     -22.23004317        3      -0.57674872       2.04837139      -0.05047491       0.00005210       0.00024598       0.00001410       0.00000027       0.00000360      -0.00004999      -0.43449715
S        4.79755664      21.92540514     -17.94837937        3       0.63542324       2.12227567       0.06040366       0.00005014       0.00024450       0.00001294       0.00000046       0.00000191       0.00005099      -0.46268478
S        3.16046918      22.20302458     -20.79499750        4       0.00044132       0.03725560      -0.00224237       0.00002197       0.00001240       0.00004817       0.00000789      -0.00000004      -0.00000061      -0.07294624
S        7.04293510      21.63364575     -21.36403630        5       0.00610527      -0.08226780      -0.08079527       0.00002703       0.00003507       0.00002102      -0.00000421      -0.00000041       0.00000026      -0.06786222
S        3.16046918      18.68729158     -18.81438625        5       0.00610556      -0.08226780       0.08079528       0.00002703       0.00003507       0.00002102       0.00000421       0.00000041       0.00000026      -0.06786223
Li       5.04161945      20.01616919     -22.25604156        0       0.63408220      -2.04222181       0.09910573       0.00004731       0.00024521       0.00000925      -0.00000333       0.00000172      -0.00006235      -0.41988434
Li       5.16178405      16.90182216     -26.57315155        0      -0.68554818      -2.08144702      -0.10005042       0.00004718       0.00024705       0.00000904       0.00000384       0.00000160       0.00006388      -0.45511942
Li       7.04293510      22.64891248     -23.46713166        1       0.00227721       0.00188093       0.11296324       0.00002448       0.00001232       0.00002530      -0.00000081       0.00000022      -0.00000064      -0.04983191
Li       3.16046918      19.70255831     -25.36206145        1       0.00227750       0.00188093      -0.11296325       0.00002448       0.00001232       0.00002530       0.00000081      -0.00000022      -0.00000064      -0.04983191
P        3.16046918      22.86292221     -23.25041204        2      -0.01603218      -0.00384690       0.05241836       0.00004618       0.00003532       0.00004615       0.00000237      -0.00000117      -0.00000034      -0.12361527
S        5.40584686      18.79057116     -26.55542845        3      -0.57674872       2.04837139      -0.05047491       0.00005210       0.00024598       0.00001410       0.00000027       0.00000360      -0.00004999      -0.43449715
S        4.79755664      21.92540514     -22.27376465        3       0.63542324       2.12227567       0.06040366       0.00005014       0.00024450       0.00001294       0.00000046       0.00000191       0.00005099      -0.46268478
S        3.16046918      22.20302458     -25.12038278        4       0.00044132       0.03725560      -0.00224237       0.00002197       0.00001240       0.00004817       0.00000789      -0.00000004      -0.00000061      -0.07294624
S        7.04293510      21.63364575     -25.68942158        5       0.00610527      -0.08226780      -0.08079527       0.00002703       0.00003507       0.00002102      -0.00000421      -0.00000041       0.00000026      -0.06786222
S        3.16046918      18.68729158     -23.13977153        5       0.00610556      -0.08226780       0.08079528       0.00002703       0.00003507       0.00002102       0.00000421       0.00000041       0.00000026      -0.06786223
Li       5.04161945      20.01616919     -26.58142684        0       0.63408220      -2.04222181       0.09910573       0.00004731       0.00024521       0.00000925      -0.00000333       0.00000172      -0.00006235      -0.41988434
Li       5.16178405      16.90182216     -30.89853683        0      -0.68554818      -2.08144702      -0.10005042       0.00004718       0.00024705       0.00000904       0.00000384       0.00000160       0.00006388      -0.45511942
Li       7.04293510      22.64891248     -27.79251694        1       0.00227721       0.00188093       0.11296324       0.00002448       0.00001232       0.00002530      -0.00000081       0.00000022      -0.00000064      -0.04983191
Li       3.16046918      19.70255831     -29.68744673        1       0.00227750       0.00188093      -0.11296325       0.00002448       0.00001232       0.00002530       0.00000081      -0.00000022      -0.00000064      -0.04983191
P        3.16046918      22.86292221     -27.57579732        2      -0.01603218      -0.00384690       0.05241836       0.00004618       0.00003532       0.00004615       0.00000237      -0.00000117      -0.00000034      -0.12361527
S        5.40584686      18.79057116     -30.88081373        3      -0.57674872       2.04837139      -0.05047491       0.00005210       0.00024598       0.00001410       0.00000027       0.00000360      -0.00004999      -0.43449715
S        4.79755664      21.92540514     -26.59914993        3       0.63542324       2.12227567       0.06040366       0.00005014       0.00024450       0.00001294       0.00000046       0.00000191       0.00005099      -0.46268478
S        3.16046918      22.20302458     -29.44576805        4       0.00044132       0.03725560      -0.00224237       0.00002197       0.00001240       0.00004817       0.00000789      -0.00000004      -0.00000061      -0.07294624
S        7.04293510      21.63364575     -30.01480686        5       0.00610527      -0.08226780      -0.08079527       0.00002703       0.00003507       0.00002102      -0.00000421      -0.00000041       0.00000026      -0.06786222
S        3.16046918      18.68729158     -27.46515681        5       0.00610556      -0.08226780       0.08079528       0.00002703       0.00003507       0.00002102       0.00000421       0.00000041       0.00000026      -0.06786223
Li       5.04161945      20.01616919     -30.90681211        0       0.63408220      -2.04222181       0.09910573       0.00004731       0.00024521       0.00000925      -0.00000333       0.00000172      -0.00006235      -0.41988434
Li       5.10345963      16.71036274     -35.22803727        0      -0.29912598       0.29345946      -1.90238622       0.00001296       0.00001769       0.00017384      -0.00002452       0.00002625      -0.00000374      -0.48478124
Li       7.04293510      22.64891248     -32.11790221        1       0.00227721       0.00187735       0.11295720       0.00002448       0.00001232       0.00002530      -0.00000081       0.00000022      -0.00000064      -0.04983314
Li       3.16046918      19.70256739     -34.01275093        1       0.00506883       0.00925823      -0.02987176       0.00000931       0.00000942       0.00001783      -0.00000221      -0.00000124       0.00000001      -0.02687102
P        3.16046918      22.86292221     -31.90118260        2      -0.01603218      -0.00386762       0.05236943       0.00004618       0.00003532       0.00004615       0.00000237      -0.00000117      -0.00000034      -0.12362301
S        5.34748981      18.98693411     -35.21032287        3       0.04157516      -0.02579341       0.02325178       0.00002703       0.00002291       0.00001381       0.00000482       0.00001149       0.00000327      -0.05461542
S        4.79755664      21.92540514     -30.92453521        3       0.63542324       2.12227567       0.06040366       0.00005014       0.00024450       0.00001294       0.00000046       0.00000191       0.00005099      -0.46268478
S        3.16046918      22.20301981     -33.77106641        4       0.00018785       0.05181983       0.12820931       0.00000761       0.00001187       0.00003218       0.00000655       0.00000031      -0.00000035      -0.04402292
S        7.04293510      21.63363161     -34.34012656        5      -0.00409168      -0.10617388      -0.12897507       0.00001049       0.00002957       0.00003182       0.00000106       0.00000143       0.00000059      -0.06658254
S        3.16046918      18.68729158     -31.79054209        5       0.00610556      -0.08226330       0.08078733       0.00002703       0.00003507       0.00002102       0.00000421       0.00000041       0.00000026      -0.06786383
Li       1.22099293       7.54540129      -0.62500000        0       0.02541146       0.03184667       0.00449551       0.00001621       0.00002078       0.00000690       0.00000156       0.00000226      -0.00000041      -0.02953553
Li       5.09994387      26.03842127      -0.62500000        0       0.00674354       0.06958300       0.08785741       0.00002783       0.00001874       0.00001481       0.00000606       0.00000301       0.00000925      -0.05469010
Li       5.16178405      23.12042947      -4.94622515        0      -0.68554818      -2.08144702      -0.10005042       0.00004718       0.00024705       0.00000904       0.00000384       0.00000160       0.00006388      -0.45511942
Li       7.04293510      28.86752888      -1.84028634        1      -0.00375677       0.00310192      -0.01534217       0.00000901       0.00000927       0.00000974       0.00000111      -0.00000034      -0.00000020      -0.02012409
Li       3.16046918      25.92116562      -3.73513505        1       0.00227750       0.00187734      -0.11295720       0.00002448       0.00001232       0.00002530       0.00000081      -0.00000022      -0.00000064      -0.04983314