504
Lattice="-4.166030694342068e-16 18.6558219398172 0.0 7.764933388889874 18.32992290740971 0.0 0.0 0.0 -45.77182202407539" Properties=species:S:1:pos:R:3:spacegroup_kinds:I:1:forces:R:3:stresses:R:6:energies:R:1 spacegroup="P m n 21" unit_cell=conventional occupancy="_JSON {\"0\": {\"Li\": 1.0}, \"1\": {\"Li\": 1.0}, \"2\": {\"P\": 1.0}, \"3\": {\"S\": 0.97}, \"4\": {\"S\": 0.98}, \"5\": {\"S\": 0.99}}" energy=-108.57350600003592 stress="0.017030380195217073 -0.0002855493311378488 -7.240588572734819e-05 -0.0002855493311378488 0.0483114630787714 -1.7545857403563183e-05 -7.240588572734819e-05 -1.7545857403563183e-05 0.022001432287280163" free_energy=-108.57350600003592 pbc="T T T"
Li       7.04293587      31.97682342      -3.73513505        1       0.00227750       0.00187734      -0.11295720       0.00002448       0.00001232       0.00002530       0.00000081      -0.00000022      -0.00000064      -0.04983314
P        7.04293587      35.13718448      -1.62356205        2      -0.01631771      -0.01550422       0.02868041       0.00002993       0.00003236       0.00004697       0.00000104      -0.00000081      -0.00000037      -0.10869018
S        0.97344700      16.06121172      -0.64271440        3      -0.18482088       0.02269003       0.03916530       0.00003560       0.00001680       0.00001713      -0.00000079      -0.00000568      -0.00000668      -0.06396763
S        7.04293587      34.47728969      -3.49345638        4       0.00044132       0.03727371      -0.00219769       0.00002197       0.00001240       0.00004817       0.00000790      -0.00000004      -0.00000061      -0.07295326
S        7.04293587      30.96154255      -1.51291071        5       0.01645991      -0.09098393       0.01403653       0.00001300       0.00002985       0.00001433       0.00000130       0.00000179       0.00000152      -0.04728338
Li       7.04293587      31.97682342      -8.06052033        1       0.00227750       0.00188093      -0.11296325       0.00002448       0.00001232       0.00002530       0.00000081      -0.00000022      -0.00000064      -0.04983191
P        7.04293587      35.13718733      -5.94887093        2      -0.01603218      -0.00384690       0.05241836       0.00004618       0.00003532       0.00004615       0.00000237      -0.00000117      -0.00000034      -0.12361527
S        0.91508994      15.86974734      -4.97222354        3       0.63542324       2.12227567       0.06040366       0.00005014       0.00024450       0.00001294       0.00000046       0.00000191       0.00005099      -0.46268478
S        7.04293587      34.47728969      -7.81884166        4       0.00044132       0.03725560      -0.00224237       0.00002197       0.00001240       0.00004817       0.00000789      -0.00000004      -0.00000061      -0.07294624
S        7.04293587      30.96155669      -5.83823041        5       0.00610556      -0.08226780       0.08079528       0.00002703       0.00003507       0.00002102       0.00000421       0.00000041       0.00000026      -0.06786223
Li       7.04293587      31.97682342     -12.38590561        1       0.00227750       0.00188093      -0.11296325       0.00002448       0.00001232       0.00002530       0.00000081      -0.00000022      -0.00000064      -0.04983191
P        7.04293587      35.13718733     -10.27425621        2      -0.01603218      -0.00384690       0.05241836       0.00004618       0.00003532       0.00004615       0.00000237      -0.00000117      -0.00000034      -0.12361527
S        0.91508994      15.86974734      -9.29760882        3       0.63542324       2.12227567       0.06040366       0.00005014       0.00024450       0.00001294       0.00000046       0.00000191       0.00005099      -0.46268478
S        7.04293587      34.47728969     -12.14422694        4       0.00044132       0.03725560      -0.00224237       0.00002197       0.00001240       0.00004817       0.00000789      -0.00000004      -0.00000061      -0.07294624
S        7.04293587      30.96155669     -10.16361569        5       0.00610556      -0.08226780       0.08079528       0.00002703       0.00003507       0.00002102       0.00000421       0.00000041       0.00000026      -0.06786223
Li       7.04293587      31.97682342     -16.71129089        1       0.00227750       0.00188093      -0.11296325       0.00002448       0.00001232       0.00002530       0.00000081      -0.00000022      -0.00000064      -0.04983191
P        7.04293587      35.13718733     -14.59964148        2      -0.01603218      -0.00384690       0.05241836       0.00004618       0.00003532       0.00004615       0.00000237      -0.00000117      -0.00000034      -0.12361527
S        0.91508994      15.86974734     -13.62299410        3       0.63542324       2.12227567       0.06040366       0.00005014       0.00024450       0.00001294       0.00000046       0.00000191       0.00005099      -0.46268478
S        7.04293587      34.47728969     -16.46961222        4       0.00044132       0.03725560      -0.00224237       0.00002197       0.00001240       0.00004817       0.00000789      -0.00000004      -0.00000061      -0.07294624
S        7.04293587      30.96155669     -14.48900097        5       0.00610556      -0.08226780       0.08079528       0.00002703       0.00003507       0.00002102       0.00000421       0.00000041       0.00000026      -0.06786223
Li       7.04293587      31.97682342     -21.03667617        1       0.00227750       0.00188093      -0.11296325       0.00002448       0.00001232       0.00002530       0.00000081      -0.00000022      -0.00000064      -0.04983191
P        7.04293587      35.13718733     -18.92502676        2      -0.01603218      -0.00384690       0.05241836       0.00004618       0.00003532       0.00004615       0.00000237      -0.00000117      -0.00000034      -0.12361527
S        0.91508994      15.86974734     -17.94837937        3       0.63542324       2.12227567       0.06040366       0.00005014       0.00024450       0.00001294       0.00000046       0.00000191       0.00005099      -0.46268478
S        7.04293587      34.47728969     -20.79499750        4       0.00044132       0.03725560      -0.00224237       0.00002197       0.00001240       0.00004817       0.00000789      -0.00000004      -0.00000061      -0.07294624
S        7.04293587      30.96155669     -18.81438625        5       0.00610556      -0.08226780       0.08079528       0.00002703       0.00003507       0.00002102       0.00000421       0.00000041       0.00000026      -0.06786223
Li       7.04293587      31.97682342     -25.36206145        1       0.00227750       0.00188093      -0.11296325       0.00002448       0.00001232       0.00002530       0.00000081      -0.00000022      -0.00000064      -0.04983191
P        7.04293587      35.13718733     -23.25041204        2      -0.01603218      -0.00384690       0.05241836       0.00004618       0.00003532       0.00004615       0.00000237      -0.00000117      -0.00000034      -0.12361527
S        0.91508994      15.86974734     -22.27376465        3       0.63542324       2.12227567       0.06040366       0.00005014       0.00024450       0.00001294       0.00000046       0.00000191       0.00005099      -0.46268478
S        7.04293587      34.47728969     -25.12038278        4       0.00044132       0.03725560      -0.00224237       0.00002197       0.00001240       0.00004817       0.00000789      -0.00000004      -0.00000061      -0.07294624
S        7.04293587      30.96155669     -23.13977153        5       0.00610556      -0.08226780       0.08079528       0.00002703       0.00003507       0.00002102       0.00000421       0.00000041       0.00000026      -0.06786223
Li       7.04293587      31.97682342     -29.68744673        1       0.00227750       0.00188093      -0.11296325       0.00002448       0.00001232       0.00002530       0.00000081      -0.00000022      -0.00000064      -0.04983191
P        7.04293587      35.13718733     -27.57579732        2      -0.01603218      -0.00384690       0.05241836       0.00004618       0.00003532       0.00004615       0.00000237      -0.00000117      -0.00000034      -0.12361527
S        0.91508994      15.86974734     -26.59914993        3       0.63542324       2.12227567       0.06040366       0.00005014       0.00024450       0.00001294       0.00000046       0.00000191       0.00005099      -0.46268478
S        7.04293587      34.47728969     -29.44576805        4       0.00044132       0.03725560      -0.00224237       0.00002197       0.00001240       0.00004817       0.00000789      -0.00000004      -0.00000061      -0.07294624
S        7.04293587      30.96155669     -27.46515681        5       0.00610556      -0.08226780       0.08079528       0.00002703       0.00003507       0.00002102       0.00000421       0.00000041       0.00000026      -0.06786223
Li       7.04293587      31.97683250     -34.01275093        1      -0.01514866       0.00827134      -0.01715677       0.00000972       0.00000941       0.00001555      -0.00000203       0.00000238      -0.00000053      -0.02478602
P        7.04293587      35.13718733     -31.90118260        2      -0.01603218      -0.00386762       0.05236943       0.00004618       0.00003532       0.00004615       0.00000237      -0.00000117      -0.00000034      -0.12362301
S        0.91508994      15.86974734     -30.92453521        3       0.63542324       2.12227567       0.06040366       0.00005014       0.00024450       0.00001294       0.00000046       0.00000191       0.00005099      -0.46268478
S        7.04293587      34.47728492     -33.77106641        4       0.00401219       0.04728334       0.14023124       0.00000737       0.00001153       0.00002981       0.00000744      -0.00000044      -0.00000007      -0.04350173
S        7.04293587      30.96155669     -31.79054209        5       0.00610556      -0.08226330       0.08078733       0.00002703       0.00003507       0.00002102       0.00000421       0.00000041       0.00000026      -0.06786383
Li       1.21747718      19.98276347      -0.62500000        0       0.06709375       0.57391502       0.72067983       0.00001090       0.00005389       0.00007446       0.00005359       0.00000870       0.00000544      -0.15031737
Li       1.27931736      17.06477167      -4.94622515        0      -0.68554818      -2.08144702      -0.10005042       0.00004718       0.00024705       0.00000904       0.00000384       0.00000160       0.00006388      -0.45511942
Li       3.16046840      22.81187108      -1.84028634        1       0.00320335       0.00069771      -0.00337244       0.00000976       0.00000936       0.00001197       0.00000066       0.00000095      -0.00000046      -0.02077988
Li       7.04293587      19.53960879      -3.73513505        1       0.00227750       0.00187734      -0.11295720       0.00002448       0.00001232       0.00002530       0.00000081      -0.00000022      -0.00000064      -0.04983314
P        7.04293587      22.69996986      -1.62356205        2      -0.01139629       0.01098223      -0.01204992       0.00003042       0.00003275       0.00004006       0.00000553       0.00000002       0.00000049      -0.10196704
S        1.52338017      18.95352068      -4.92850206        3      -0.57674872       2.04837139      -0.05047491       0.00005210       0.00024598       0.00001410       0.00000027       0.00000360      -0.00004999      -0.43449715
S        0.97344700       3.62399709      -0.64271440        3      -0.04302857      -0.14660977       0.11497867       0.00002150       0.00003866       0.00002438      -0.00001697       0.00000787      -0.00001412      -0.08101024
S        7.04293587      22.04007507      -3.49345638        4       0.00044132       0.03727371      -0.00219769       0.00002197       0.00001240       0.00004817       0.00000790      -0.00000004      -0.00000061      -0.07295326
S        3.16046840      21.79659527      -4.06249518        5       0.00610527      -0.08226331      -0.08078732       0.00002703       0.00003507       0.00002102      -0.00000421      -0.00000041       0.00000026      -0.06786382
S        7.04293587      18.52432792      -1.51291071        5      -0.00832774      -0.08307928       0.01456551       0.00001183       0.00002983       0.00001442       0.00000257      -0.00000220      -0.00000042      -0.04879941
Li       1.15915275      20.17911871      -4.95450044        0       0.63408220      -2.04222181       0.09910573       0.00004731       0.00024521       0.00000925      -0.00000333       0.00000172      -0.00006235      -0.41988434
Li       1.27931736      17.06477167      -9.27161043        0      -0.68554818      -2.08144702      -0.10005042       0.00004718       0.00024705       0.00000904       0.00000384       0.00000160       0.00006388      -0.45511942
Li       3.16046840      22.81186200      -6.16559054        1       0.00227721       0.00188093       0.11296324       0.00002448       0.00001232       0.00002530      -0.00000081       0.00000022      -0.00000064      -0.04983191
Li       7.04293587      19.53960879      -8.06052033        1       0.00227750       0.00188093      -0.11296325       0.00002448       0.00001232       0.00002530       0.00000081      -0.00000022      -0.00000064      -0.04983191
P        7.04293587      22.69997270      -5.94887093        2      -0.01603218      -0.00384690       0.05241836       0.00004618       0.00003532       0.00004615       0.00000237      -0.00000117      -0.00000034      -0.12361527
S        1.52338017      18.95352068      -9.25388734        3      -0.57674872       2.04837139      -0.05047491       0.00005210       0.00024598       0.00001410       0.00000027       0.00000360      -0.00004999      -0.43449715
S        0.91508994       3.43253271      -4.97222354        3       0.63542324       2.12227567       0.06040366       0.00005014       0.00024450       0.00001294       0.00000046       0.00000191       0.00005099      -0.46268478
S        7.04293587      22.04007507      -7.81884166        4       0.00044132       0.03725560      -0.00224237       0.00002197       0.00001240       0.00004817       0.00000789      -0.00000004      -0.00000061      -0.07294624
S        3.16046840      21.79659527      -8.38788046        5       0.00610527      -0.08226780      -0.08079527       0.00002703       0.00003507       0.00002102      -0.00000421      -0.00000041       0.00000026      -0.06786222
S        7.04293587      18.52434206      -5.83823041        5       0.00610556      -0.08226780       0.08079528       0.00002703       0.00003507       0.00002102       0.00000421       0.00000041       0.00000026      -0.06786223
Li       1.15915275      20.17911871      -9.27988572        0       0.63408220      -2.04222181       0.09910573       0.00004731       0.00024521       0.00000925      -0.00000333       0.00000172      -0.00006235      -0.41988434
Li       1.27931736      17.06477167     -13.59699571        0      -0.68554818      -2.08144702      -0.10005042       0.00004718       0.00024705       0.00000904       0.00000384       0.00000160       0.00006388      -0.45511942
Li       3.16046840      22.81186200     -10.49097582        1       0.00227721       0.00188093       0.11296324       0.00002448       0.00001232       0.00002530      -0.00000081       0.00000022      -0.00000064      -0.04983191
Li       7.04293587      19.53960879     -12.38590561        1       0.00227750       0.00188093      -0.11296325       0.00002448       0.00001232       0.00002530       0.00000081      -0.00000022      -0.00000064      -0.04983191
P        7.04293587      22.69997270     -10.27425621        2      -0.01603218      -0.00384690       0.05241836       0.00004618       0.00003532       0.00004615       0.00000237      -0.00000117      -0.00000034      -0.12361527
S        1.52338017      18.95352068     -13.57927262        3      -0.57674872       2.04837139      -0.05047491       0.00005210       0.00024598       0.00001410       0.00000027       0.00000360      -0.00004999      -0.43449715
S        0.91508994       3.43253271      -9.29760882        3       0.63542324       2.12227567       0.06040366       0.00005014       0.00024450       0.00001294       0.00000046       0.00000191       0.00005099      -0.46268478
S        7.04293587      22.04007507     -12.14422694        4       0.00044132       0.03725560      -0.00224237       0.00002197       0.00001240       0.00004817       0.00000789      -0.00000004      -0.00000061      -0.07294624
S        3.16046840      21.79659527     -12.71326574        5       0.00610527      -0.08226780      -0.08079527       0.00002703       0.00003507       0.00002102      -0.00000421      -0.00000041       0.00000026      -0.06786222
S        7.04293587      18.52434206     -10.16361569        5       0.00610556      -0.08226780       0.08079528       0.00002703       0.00003507       0.00002102       0.00000421       0.00000041       0.00000026      -0.06786223
Li       1.15915275      20.17911871     -13.60527100        0       0.63408220      -2.04222181       0.09910573       0.00004731       0.00024521       0.00000925      -0.00000333       0.00000172      -0.00006235      -0.41988434
Li       1.27931736      17.06477167     -17.92238099        0      -0.68554818      -2.08144702      -0.10005042       0.00004718       0.00024705       0.00000904       0.00000384       0.00000160       0.00006388      -0.45511942
Li       3.16046840      22.81186200     -14.81636110        1       0.00227721       0.00188093       0.11296324       0.00002448       0.00001232       0.00002530      -0.00000081       0.00000022      -0.00000064      -0.04983191
Li       7.04293587      19.53960879     -16.71129089        1       0.00227750       0.00188093      -0.11296325       0.00002448       0.00001232       0.00002530       0.00000081      -0.00000022      -0.00000064      -0.04983191
P        7.04293587      22.69997270     -14.59964148        2      -0.01603218      -0.00384690       0.05241836       0.00004618       0.00003532       0.00004615       0.00000237      -0.00000117      -0.00000034      -0.12361527
S        1.52338017      18.95352068     -17.90465789        3      -0.57674872       2.04837139      -0.05047491       0.00005210       0.00024598       0.00001410       0.00000027       0.00000360      -0.00004999      -0.43449715
S        0.91508994       3.43253271     -13.62299410        3       0.63542324       2.12227567       0.06040366       0.00005014       0.00024450       0.00001294       0.00000046       0.00000191       0.00005099      -0.46268478
S        7.04293587      22.04007507     -16.46961222        4       0.00044132       0.03725560      -0.00224237       0.00002197       0.00001240       0.00004817       0.00000789      -0.00000004      -0.00000061      -0.07294624
S        3.16046840      21.79659527     -17.03865102        5       0.00610527      -0.08226780      -0.08079527       0.00002703       0.00003507       0.00002102      -0.00000421      -0.00000041       0.00000026      -0.06786222
S        7.04293587      18.52434206     -14.48900097        5       0.00610556      -0.08226780       0.08079528       0.00002703       0.00003507       0.00002102       0.00000421       0.00000041       0.00000026      -0.06786223
Li       1.15915275      20.17911871     -17.93065628        0       0.63408220      -2.04222181       0.09910573       0.00004731       0.00024521       0.00000925      -0.00000333       0.00000172      -0.00006235      -0.41988434
Li       1.27931736      17.06477167     -22.24776627        0      -0.68554818      -2.08144702      -0.10005042       0.00004718       0.00024705       0.00000904       0.00000384       0.00000160       0.00006388      -0.45511942
Li       3.16046840      22.81186200     -19.14174638        1       0.00227721       0.00188093       0.11296324       0.00002448       0.00001232       0.00002530      -0.00000081       0.00000022      -0.00000064      -0.04983191
Li       7.04293587      19.53960879     -21.03667617        1       0.00227750       0.00188093      -0.11296325       0.00002448       0.00001232       0.00002530       0.00000081      -0.00000022      -0.00000064      -0.04983191
P        7.04293587      22.69997270     -18.92502676        2      -0.01603218      -0.00384690       0.05241836       0.00004618       0.00003532       0.00004615       0.00000237      -0.00000117      -0.00000034      -0.12361527
S        1.52338017      18.95352068     -22.23004317        3      -0.57674872       2.04837139      -0.05047491       0.00005210       0.00024598       0.00001410       0.00000027       0.00000360      -0.00004999      -0.43449715
S        0.91508994       3.43253271     -17.94837937        3       0.63542324       2.12227567       0.06040366       0.00005014       0.00024450       0.00001294       0.00000046       0.00000191       0.00005099      -0.46268478
S        7.04293587      22.04007507     -20.79499750        4       0.00044132       0.03725560      -0.00224237       0.00002197       0.00001240       0.00004817       0.00000789      -0.00000004      -0.00000061      -0.07294624
S        3.16046840      21.79659527     -21.36403630        5       0.00610527      -0.08226780      -0.08079527       0.00002703       0.00003507       0.00002102      -0.00000421      -0.00000041       0.00000026      -0.06786222
S        7.04293587      18.52434206     -18.81438625        5       0.00610556      -0.08226780       0.08079528       0.00002703       0.00003507       0.00002102       0.00000421       0.00000041       0.00000026      -0.06786223
Li       1.15915275      20.17911871     -22.25604156        0       0.63408220      -2.04222181       0.09910573       0.00004731       0.00024521       0.00000925      -0.00000333       0.00000172      -0.00006235      -0.41988434
Li       1.27931736      17.06477167     -26.57315155        0      -0.68554818      -2.08144702      -0.10005042       0.00004718       0.00024705       0.00000904       0.00000384       0.00000160       0.00006388      -0.45511942
Li       3.16046840      22.81186200     -23.46713166        1       0.00227721       0.00188093       0.11296324       0.00002448       0.00001232       0.00002530      -0.00000081       0.00000022      -0.00000064      -0.04983191
Li       7.04293587      19.53960879     -25.36206145        1       0.00227750       0.00188093      -0.11296325       0.00002448       0.00001232       0.00002530       0.00000081      -0.00000022      -0.00000064      -0.04983191
P        7.04293587      22.69997270     -23.25041204        2      -0.01603218      -0.00384690       0.05241836       0.00004618       0.00003532       0.00004615       0.00000237      -0.00000117      -0.00000034      -0.12361527
S        1.52338017      18.95352068     -26.55542845        3      -0.57674872       2.04837139      -0.05047491       0.00005210       0.00024598       0.00001410       0.00000027       0.00000360      -0.00004999      -0.43449715
S        0.91508994       3.43253271     -22.27376465        3       0.63542324       2.12227567       0.06040366       0.00005014       0.00024450       0.00001294       0.00000046       0.00000191       0.00005099      -0.46268478
S        7.04293587      22.04007507     -25.12038278        4       0.00044132       0.03725560      -0.00224237       0.00002197       0.00001240       0.00004817       0.00000789      -0.00000004      -0.00000061      -0.07294624
S        3.16046840      21.79659527     -25.68942158        5       0.00610527      -0.08226780      -0.08079527       0.00002703       0.00003507       0.00002102      -0.00000421      -0.00000041       0.00000026      -0.06786222
S        7.04293587      18.52434206     -23.13977153        5       0.00610556      -0.08226780       0.08079528       0.00002703       0.00003507       0.00002102       0.00000421       0.00000041       0.00000026      -0.06786223
Li       1.15915275      20.17911871     -26.58142684        0       0.63408220      -2.04222181       0.09910573       0.00004731       0.00024521       0.00000925      -0.00000333       0.00000172      -0.00006235      -0.41988434
Li       1.27931736      17.06477167     -30.89853683        0      -0.68554818      -2.08144702      -0.10005042       0.00004718       0.00024705       0.00000904       0.00000384       0.00000160       0.00006388      -0.45511942
Li       3.16046840      22.81186200     -27.79251694        1       0.00227721       0.00188093       0.11296324       0.00002448       0.00001232       0.00002530      -0.00000081       0.00000022      -0.00000064      -0.04983191
Li       7.04293587      19.53960879     -29.68744673        1       0.00227750       0.00188093      -0.11296325       0.00002448       0.00001232       0.00002530       0.00000081      -0.00000022      -0.00000064      -0.04983191
P        7.04293587      22.69997270     -27.57579732        2      -0.01603218      -0.00384690       0.05241836       0.00004618       0.00003532       0.00004615       0.00000237      -0.00000117      -0.00000034      -0.12361527
S        1.52338017      18.95352068     -30.88081373        3      -0.57674872       2.04837139      -0.05047491       0.00005210       0.00024598       0.00001410       0.00000027       0.00000360      -0.00004999      -0.43449715
S        0.91508994       3.43253271     -26.59914993        3       0.63542324       2.12227567       0.06040366       0.00005014       0.00024450       0.00001294       0.00000046       0.00000191       0.00005099      -0.46268478
S        7.04293587      22.04007507     -29.44576805        4       0.00044132       0.03725560      -0.00224237       0.00002197       0.00001240       0.00004817       0.00000789      -0.00000004      -0.00000061      -0.07294624
S        3.16046840      21.79659527     -30.01480686        5       0.00610527      -0.08226780      -0.08079527       0.00002703       0.00003507       0.00002102      -0.00000421      -0.00000041       0.00000026      -0.06786222
S        7.04293587      18.52434206     -27.46515681        5       0.00610556      -0.08226780       0.08079528       0.00002703       0.00003507       0.00002102       0.00000421       0.00000041       0.00000026      -0.06786223
Li       1.15915275      20.17911871     -30.90681211        0       0.63408220      -2.04222181       0.09910573       0.00004731       0.00024521       0.00000925      -0.00000333       0.00000172      -0.00006235      -0.41988434
Li       1.22099293      16.87331226     -35.22803727        0       0.04394381      -0.09223936      -0.16647716       0.00001274       0.00004434       0.00002074       0.00000920      -0.00000378      -0.00001104      -0.07350356
Li       3.16046840      22.81186200     -32.11790221        1       0.00227721       0.00187735       0.11295720       0.00002448       0.00001232       0.00002530      -0.00000081       0.00000022      -0.00000064      -0.04983314
Li       7.04293587      19.53961787     -34.01275093        1       0.00147434      -0.00283106       0.00416618       0.00000944       0.00000983       0.00001174      -0.00000005      -0.00000060      -0.00000070      -0.02070477
P        7.04293587      22.69997270     -31.90118260        2      -0.01603218      -0.00386762       0.05236943       0.00004618       0.00003532       0.00004615       0.00000237      -0.00000117      -0.00000034      -0.12362301
S        1.46502311      19.14988362     -35.21032287        3      -0.24786225      -0.19257118      -0.32498324       0.00005422       0.00002296       0.00004316       0.00001967       0.00003738       0.00002231      -0.12364903
S        0.91508994       3.43253271     -30.92453521        3       0.63542324       2.12227567       0.06040366       0.00005014       0.00024450       0.00001294       0.00000046       0.00000191       0.00005099      -0.46268478
S        7.04293587      22.04007029     -33.77106641        4       0.00239157       0.04204152       0.11723924       0.00000739       0.00001177       0.00003434       0.00000847      -0.00000012       0.00000001      -0.04606799
S        3.16046840      21.79658113     -34.34012656        5       0.00334358      -0.09029234      -0.02012749       0.00001101       0.00003276       0.00001504      -0.00000139       0.00000028      -0.00000103      -0.04908380
S        7.04293587      18.52434206     -31.79054209        5       0.00610556      -0.08226330       0.08078733       0.00002703       0.00003507       0.00002102       0.00000421       0.00000041       0.00000026      -0.06786383
Li       5.10345963      26.03827371      -0.62500000        0       0.04278443       0.07770857       0.08929400       0.00002708       0.00001925       0.00001489       0.00000588       0.00000390       0.00000846      -0.05451732
Li       1.21747718       7.54554885      -0.62500000        0      -0.00984794       0.02444412       0.00326598       0.00001693       0.00002030       0.00000684       0.00000180       0.00000145       0.00000041      -0.02973480
Li       1.27931736       4.62755705      -4.94622515        0      -0.68554818      -2.08144702      -0.10005042       0.00004718       0.00024705       0.00000904       0.00000384       0.00000160       0.00006388      -0.45511942
Li       3.16046840      10.37465645      -1.84028634        1      -0.01219936       0.00027601       0.00268113       0.00000974       0.00000935       0.00001309       0.00000058      -0.00000191       0.00000004      -0.02200128
Li       7.04293587      25.75821611      -3.73513505        1       0.00227750       0.00187734      -0.11295720       0.00002448       0.00001232       0.00002530       0.00000081      -0.00000022      -0.00000064      -0.04983314