504
Lattice="-4.166030694342068e-16 18.6558219398172 0.0 7.764933388889874 18.32992290740971 0.0 0.0 0.0 -45.77182202407539" Properties=species:S:1:pos:R:3:spacegroup_kinds:I:1:forces:R:3:stresses:R:6:energies:R:1 spacegroup="P m n 21" unit_cell=conventional occupancy="_JSON {\"0\": {\"Li\": 1.0}, \"1\": {\"Li\": 1.0}, \"2\": {\"P\": 1.0}, \"3\": {\"S\": 0.97}, \"4\": {\"S\": 0.98}, \"5\": {\"S\": 0.99}}" energy=-109.22241876886622 stress="0.016936389284925045 -0.0001921416424015485 -2.5074668088331408e-06 -0.0001921416424015485 0.04837876333989565 -3.176458628725141e-05 -2.5074668088331408e-06 -3.176458628725141e-05 0.02259942391087025" free_energy=-109.22241876886622 pbc="T T T"
Li       5.10170253      22.73038721      -3.73513505        1       0.00227750       0.00187734      -0.11295720       0.00002448       0.00001232       0.00002530       0.00000081      -0.00000022      -0.00000064      -0.04983314
P        5.10170253      25.89074827      -1.62356205        2      -0.02096141       0.00268461      -0.01515931       0.00003187       0.00003230       0.00003954       0.00000413      -0.00000160       0.00000064      -0.09973891
S        6.79714704      25.14469842      -0.64271440        3      -0.03085747      -0.00255132       0.04462934       0.00002283       0.00003273       0.00001765      -0.00000320       0.00000904      -0.00001314      -0.06797383
S        5.10170253      25.23085348      -3.49345638        4       0.00044132       0.03727371      -0.00219769       0.00002197       0.00001240       0.00004817       0.00000790      -0.00000004      -0.00000061      -0.07295326
S        5.10170253      21.71510633      -1.51291071        5      -0.00741979      -0.07297495       0.05193278       0.00001094       0.00003026       0.00002044       0.00000420      -0.00000206      -0.00000035      -0.05503228
Li       5.10170253      22.73038721      -8.06052033        1       0.00227750       0.00188093      -0.11296325       0.00002448       0.00001232       0.00002530       0.00000081      -0.00000022      -0.00000064      -0.04983191
P        5.10170253      25.89075111      -5.94887093        2      -0.01603218      -0.00384690       0.05241836       0.00004618       0.00003532       0.00004615       0.00000237      -0.00000117      -0.00000034      -0.12361527
S        6.73878998      24.95323403      -4.97222354        3       0.63542324       2.12227567       0.06040366       0.00005014       0.00024450       0.00001294       0.00000046       0.00000191       0.00005099      -0.46268478
S        5.10170253      25.23085348      -7.81884166        4       0.00044132       0.03725560      -0.00224237       0.00002197       0.00001240       0.00004817       0.00000789      -0.00000004      -0.00000061      -0.07294624
S        5.10170253      21.71512048      -5.83823041        5       0.00610556      -0.08226780       0.08079528       0.00002703       0.00003507       0.00002102       0.00000421       0.00000041       0.00000026      -0.06786223
Li       5.10170253      22.73038721     -12.38590561        1       0.00227750       0.00188093      -0.11296325       0.00002448       0.00001232       0.00002530       0.00000081      -0.00000022      -0.00000064      -0.04983191
P        5.10170253      25.89075111     -10.27425621        2      -0.01603218      -0.00384690       0.05241836       0.00004618       0.00003532       0.00004615       0.00000237      -0.00000117      -0.00000034      -0.12361527
S        6.73878998      24.95323403      -9.29760882        3       0.63542324       2.12227567       0.06040366       0.00005014       0.00024450       0.00001294       0.00000046       0.00000191       0.00005099      -0.46268478
S        5.10170253      25.23085348     -12.14422694        4       0.00044132       0.03725560      -0.00224237       0.00002197       0.00001240       0.00004817       0.00000789      -0.00000004      -0.00000061      -0.07294624
S        5.10170253      21.71512048     -10.16361569        5       0.00610556      -0.08226780       0.08079528       0.00002703       0.00003507       0.00002102       0.00000421       0.00000041       0.00000026      -0.06786223
Li       5.10170253      22.73038721     -16.71129089        1       0.00227750       0.00188093      -0.11296325       0.00002448       0.00001232       0.00002530       0.00000081      -0.00000022      -0.00000064      -0.04983191
P        5.10170253      25.89075111     -14.59964148        2      -0.01603218      -0.00384690       0.05241836       0.00004618       0.00003532       0.00004615       0.00000237      -0.00000117      -0.00000034      -0.12361527
S        6.73878998      24.95323403     -13.62299410        3       0.63542324       2.12227567       0.06040366       0.00005014       0.00024450       0.00001294       0.00000046       0.00000191       0.00005099      -0.46268478
S        5.10170253      25.23085348     -16.46961222        4       0.00044132       0.03725560      -0.00224237       0.00002197       0.00001240       0.00004817       0.00000789      -0.00000004      -0.00000061      -0.07294624
S        5.10170253      21.71512048     -14.48900097        5       0.00610556      -0.08226780       0.08079528       0.00002703       0.00003507       0.00002102       0.00000421       0.00000041       0.00000026      -0.06786223
Li       5.10170253      22.73038721     -21.03667617        1       0.00227750       0.00188093      -0.11296325       0.00002448       0.00001232       0.00002530       0.00000081      -0.00000022      -0.00000064      -0.04983191
P        5.10170253      25.89075111     -18.92502676        2      -0.01603218      -0.00384690       0.05241836       0.00004618       0.00003532       0.00004615       0.00000237      -0.00000117      -0.00000034      -0.12361527
S        6.73878998      24.95323403     -17.94837937        3       0.63542324       2.12227567       0.06040366       0.00005014       0.00024450       0.00001294       0.00000046       0.00000191       0.00005099      -0.46268478
S        5.10170253      25.23085348     -20.79499750        4       0.00044132       0.03725560      -0.00224237       0.00002197       0.00001240       0.00004817       0.00000789      -0.00000004      -0.00000061      -0.07294624
S        5.10170253      21.71512048     -18.81438625        5       0.00610556      -0.08226780       0.08079528       0.00002703       0.00003507       0.00002102       0.00000421       0.00000041       0.00000026      -0.06786223
Li       5.10170253      22.73038721     -25.36206145        1       0.00227750       0.00188093      -0.11296325       0.00002448       0.00001232       0.00002530       0.00000081      -0.00000022      -0.00000064      -0.04983191
P        5.10170253      25.89075111     -23.25041204        2      -0.01603218      -0.00384690       0.05241836       0.00004618       0.00003532       0.00004615       0.00000237      -0.00000117      -0.00000034      -0.12361527
S        6.73878998      24.95323403     -22.27376465        3       0.63542324       2.12227567       0.06040366       0.00005014       0.00024450       0.00001294       0.00000046       0.00000191       0.00005099      -0.46268478
S        5.10170253      25.23085348     -25.12038278        4       0.00044132       0.03725560      -0.00224237       0.00002197       0.00001240       0.00004817       0.00000789      -0.00000004      -0.00000061      -0.07294624
S        5.10170253      21.71512048     -23.13977153        5       0.00610556      -0.08226780       0.08079528       0.00002703       0.00003507       0.00002102       0.00000421       0.00000041       0.00000026      -0.06786223
Li       5.10170253      22.73038721     -29.68744673        1       0.00227750       0.00188093      -0.11296325       0.00002448       0.00001232       0.00002530       0.00000081      -0.00000022      -0.00000064      -0.04983191
P        5.10170253      25.89075111     -27.57579732        2      -0.01603218      -0.00384690       0.05241836       0.00004618       0.00003532       0.00004615       0.00000237      -0.00000117      -0.00000034      -0.12361527
S        6.73878998      24.95323403     -26.59914993        3       0.63542324       2.12227567       0.06040366       0.00005014       0.00024450       0.00001294       0.00000046       0.00000191       0.00005099      -0.46268478
S        5.10170253      25.23085348     -29.44576805        4       0.00044132       0.03725560      -0.00224237       0.00002197       0.00001240       0.00004817       0.00000789      -0.00000004      -0.00000061      -0.07294624
S        5.10170253      21.71512048     -27.46515681        5       0.00610556      -0.08226780       0.08079528       0.00002703       0.00003507       0.00002102       0.00000421       0.00000041       0.00000026      -0.06786223
Li       5.10170253      22.73039629     -34.01275093        1      -0.00375668       0.00310192       0.01534218       0.00000901       0.00000927       0.00000974      -0.00000111       0.00000034      -0.00000020      -0.02012409
P        5.10170253      25.89075111     -31.90118260        2      -0.01603218      -0.00386762       0.05236943       0.00004618       0.00003532       0.00004615       0.00000237      -0.00000117      -0.00000034      -0.12362301
S        6.73878998      24.95323403     -30.92453521        3       0.63542324       2.12227567       0.06040366       0.00005014       0.00024450       0.00001294       0.00000046       0.00000191       0.00005099      -0.46268478
S        5.10170253      25.23084870     -33.77106641        4       0.00763847       0.04240348       0.11976012       0.00000750       0.00001176       0.00003385       0.00000840      -0.00000116      -0.00000024      -0.04562486
S        5.10170253      21.71512048     -31.79054209        5       0.00610556      -0.08226330       0.08078733       0.00002703       0.00003507       0.00002102       0.00000421       0.00000041       0.00000026      -0.06786383
Li       7.04117722      29.06625017      -0.62500000        0      -0.06837680       0.02555878       0.00674179       0.00001474       0.00002058       0.00000717       0.00000191      -0.00000407      -0.00000114      -0.03349320
Li       7.10301740      26.14825837      -4.94622515        0      -0.68554818      -2.08144702      -0.10005042       0.00004718       0.00024705       0.00000904       0.00000384       0.00000160       0.00006388      -0.45511942
Li       1.21923505      13.56543487      -1.84028634        1      -0.01050622      -0.00239754       0.01743007       0.00000927       0.00000944       0.00001583       0.00000009      -0.00000159       0.00000001      -0.02461864
Li       5.10170253      28.94899452      -3.73513505        1       0.00227750       0.00187734      -0.11295720       0.00002448       0.00001232       0.00002530       0.00000081      -0.00000022      -0.00000064      -0.04983314
P        5.10170253      13.45353365      -1.62356205        2      -0.02855448       0.00691031      -0.02213347       0.00003059       0.00003248       0.00003835       0.00000484      -0.00000289      -0.00000090      -0.09995564
S        7.34708021      28.03700738      -4.92850206        3      -0.57674872       2.04837139      -0.05047491       0.00005210       0.00024598       0.00001410       0.00000027       0.00000360      -0.00004999      -0.43449715
S        6.79714704      31.36330573      -0.64271440        3      -0.00363346      -0.03476887       0.02737439       0.00003545       0.00001744       0.00001600      -0.00000628       0.00001164      -0.00000178      -0.06314301
S        5.10170253      12.79363885      -3.49345638        4       0.00044132       0.03727371      -0.00219769       0.00002197       0.00001240       0.00004817       0.00000790      -0.00000004      -0.00000061      -0.07295326
S        1.21923505      12.55015905      -4.06249518        5       0.00610527      -0.08226331      -0.08078732       0.00002703       0.00003507       0.00002102      -0.00000421      -0.00000041       0.00000026      -0.06786382
S        5.10170253      27.93371365      -1.51291071        5       0.01889504      -0.09963165      -0.00319103       0.00001137       0.00002992       0.00001155      -0.00000010       0.00000219      -0.00000036      -0.04520955
Li       6.98285279      29.26260541      -4.95450044        0       0.63408220      -2.04222181       0.09910573       0.00004731       0.00024521       0.00000925      -0.00000333       0.00000172      -0.00006235      -0.41988434
Li       7.10301740      26.14825837      -9.27161043        0      -0.68554818      -2.08144702      -0.10005042       0.00004718       0.00024705       0.00000904       0.00000384       0.00000160       0.00006388      -0.45511942
Li       1.21923505      13.56542579      -6.16559054        1       0.00227721       0.00188093       0.11296324       0.00002448       0.00001232       0.00002530      -0.00000081       0.00000022      -0.00000064      -0.04983191
Li       5.10170253      28.94899452      -8.06052033        1       0.00227750       0.00188093      -0.11296325       0.00002448       0.00001232       0.00002530       0.00000081      -0.00000022      -0.00000064      -0.04983191
P        5.10170253      13.45353649      -5.94887093        2      -0.01603218      -0.00384690       0.05241836       0.00004618       0.00003532       0.00004615       0.00000237      -0.00000117      -0.00000034      -0.12361527
S        7.34708021      28.03700738      -9.25388734        3      -0.57674872       2.04837139      -0.05047491       0.00005210       0.00024598       0.00001410       0.00000027       0.00000360      -0.00004999      -0.43449715
S        6.73878998      31.17184135      -4.97222354        3       0.63542324       2.12227567       0.06040366       0.00005014       0.00024450       0.00001294       0.00000046       0.00000191       0.00005099      -0.46268478
S        5.10170253      12.79363885      -7.81884166        4       0.00044132       0.03725560      -0.00224237       0.00002197       0.00001240       0.00004817       0.00000789      -0.00000004      -0.00000061      -0.07294624
S        1.21923505      12.55015905      -8.38788046        5       0.00610527      -0.08226780      -0.08079527       0.00002703       0.00003507       0.00002102      -0.00000421      -0.00000041       0.00000026      -0.06786222
S        5.10170253      27.93372779      -5.83823041        5       0.00610556      -0.08226780       0.08079528       0.00002703       0.00003507       0.00002102       0.00000421       0.00000041       0.00000026      -0.06786223
Li       6.98285279      29.26260541      -9.27988572        0       0.63408220      -2.04222181       0.09910573       0.00004731       0.00024521       0.00000925      -0.00000333       0.00000172      -0.00006235      -0.41988434
Li       7.10301740      26.14825837     -13.59699571        0      -0.68554818      -2.08144702      -0.10005042       0.00004718       0.00024705       0.00000904       0.00000384       0.00000160       0.00006388      -0.45511942
Li       1.21923505      13.56542579     -10.49097582        1       0.00227721       0.00188093       0.11296324       0.00002448       0.00001232       0.00002530      -0.00000081       0.00000022      -0.00000064      -0.04983191
Li       5.10170253      28.94899452     -12.38590561        1       0.00227750       0.00188093      -0.11296325       0.00002448       0.00001232       0.00002530       0.00000081      -0.00000022      -0.00000064      -0.04983191
P        5.10170253      13.45353649     -10.27425621        2      -0.01603218      -0.00384690       0.05241836       0.00004618       0.00003532       0.00004615       0.00000237      -0.00000117      -0.00000034      -0.12361527
S        7.34708021      28.03700738     -13.57927262        3      -0.57674872       2.04837139      -0.05047491       0.00005210       0.00024598       0.00001410       0.00000027       0.00000360      -0.00004999      -0.43449715
S        6.73878998      31.17184135      -9.29760882        3       0.63542324       2.12227567       0.06040366       0.00005014       0.00024450       0.00001294       0.00000046       0.00000191       0.00005099      -0.46268478
S        5.10170253      12.79363885     -12.14422694        4       0.00044132       0.03725560      -0.00224237       0.00002197       0.00001240       0.00004817       0.00000789      -0.00000004      -0.00000061      -0.07294624
S        1.21923505      12.55015905     -12.71326574        5       0.00610527      -0.08226780      -0.08079527       0.00002703       0.00003507       0.00002102      -0.00000421      -0.00000041       0.00000026      -0.06786222
S        5.10170253      27.93372779     -10.16361569        5       0.00610556      -0.08226780       0.08079528       0.00002703       0.00003507       0.00002102       0.00000421       0.00000041       0.00000026      -0.06786223
Li       6.98285279      29.26260541     -13.60527100        0       0.63408220      -2.04222181       0.09910573       0.00004731       0.00024521       0.00000925      -0.00000333       0.00000172      -0.00006235      -0.41988434
Li       7.10301740      26.14825837     -17.92238099        0      -0.68554818      -2.08144702      -0.10005042       0.00004718       0.00024705       0.00000904       0.00000384       0.00000160       0.00006388      -0.45511942
Li       1.21923505      13.56542579     -14.81636110        1       0.00227721       0.00188093       0.11296324       0.00002448       0.00001232       0.00002530      -0.00000081       0.00000022      -0.00000064      -0.04983191
Li       5.10170253      28.94899452     -16.71129089        1       0.00227750       0.00188093      -0.11296325       0.00002448       0.00001232       0.00002530       0.00000081      -0.00000022      -0.00000064      -0.04983191
P        5.10170253      13.45353649     -14.59964148        2      -0.01603218      -0.00384690       0.05241836       0.00004618       0.00003532       0.00004615       0.00000237      -0.00000117      -0.00000034      -0.12361527
S        7.34708021      28.03700738     -17.90465789        3      -0.57674872       2.04837139      -0.05047491       0.00005210       0.00024598       0.00001410       0.00000027       0.00000360      -0.00004999      -0.43449715
S        6.73878998      31.17184135     -13.62299410        3       0.63542324       2.12227567       0.06040366       0.00005014       0.00024450       0.00001294       0.00000046       0.00000191       0.00005099      -0.46268478
S        5.10170253      12.79363885     -16.46961222        4       0.00044132       0.03725560      -0.00224237       0.00002197       0.00001240       0.00004817       0.00000789      -0.00000004      -0.00000061      -0.07294624
S        1.21923505      12.55015905     -17.03865102        5       0.00610527      -0.08226780      -0.08079527       0.00002703       0.00003507       0.00002102      -0.00000421      -0.00000041       0.00000026      -0.06786222
S        5.10170253      27.93372779     -14.48900097        5       0.00610556      -0.08226780       0.08079528       0.00002703       0.00003507       0.00002102       0.00000421       0.00000041       0.00000026      -0.06786223
Li       6.98285279      29.26260541     -17.93065628        0       0.63408220      -2.04222181       0.09910573       0.00004731       0.00024521       0.00000925      -0.00000333       0.00000172      -0.00006235      -0.41988434
Li       7.10301740      26.14825837     -22.24776627        0      -0.68554818      -2.08144702      -0.10005042       0.00004718       0.00024705       0.00000904       0.00000384       0.00000160       0.00006388      -0.45511942
Li       1.21923505      13.56542579     -19.14174638        1       0.00227721       0.00188093       0.11296324       0.00002448       0.00001232       0.00002530      -0.00000081       0.00000022      -0.00000064      -0.04983191
Li       5.10170253      28.94899452     -21.03667617        1       0.00227750       0.00188093      -0.11296325       0.00002448       0.00001232       0.00002530       0.00000081      -0.00000022      -0.00000064      -0.04983191
P        5.10170253      13.45353649     -18.92502676        2      -0.01603218      -0.00384690       0.05241836       0.00004618       0.00003532       0.00004615       0.00000237      -0.00000117      -0.00000034      -0.12361527
S        7.34708021      28.03700738     -22.23004317        3      -0.57674872       2.04837139      -0.05047491       0.00005210       0.00024598       0.00001410       0.00000027       0.00000360      -0.00004999      -0.43449715
S        6.73878998      31.17184135     -17.94837937        3       0.63542324       2.12227567       0.06040366       0.00005014       0.00024450       0.00001294       0.00000046       0.00000191       0.00005099      -0.46268478
S        5.10170253      12.79363885     -20.79499750        4       0.00044132       0.03725560      -0.00224237       0.00002197       0.00001240       0.00004817       0.00000789      -0.00000004      -0.00000061      -0.07294624
S        1.21923505      12.55015905     -21.36403630        5       0.00610527      -0.08226780      -0.08079527       0.00002703       0.00003507       0.00002102      -0.00000421      -0.00000041       0.00000026      -0.06786222
S        5.10170253      27.93372779     -18.81438625        5       0.00610556      -0.08226780       0.08079528       0.00002703       0.00003507       0.00002102       0.00000421       0.00000041       0.00000026      -0.06786223
Li       6.98285279      29.26260541     -22.25604156        0       0.63408220      -2.04222181       0.09910573       0.00004731       0.00024521       0.00000925      -0.00000333       0.00000172      -0.00006235      -0.41988434
Li       7.10301740      26.14825837     -26.57315155        0      -0.68554818      -2.08144702      -0.10005042       0.00004718       0.00024705       0.00000904       0.00000384       0.00000160       0.00006388      -0.45511942
Li       1.21923505      13.56542579     -23.46713166        1       0.00227721       0.00188093       0.11296324       0.00002448       0.00001232       0.00002530      -0.00000081       0.00000022      -0.00000064      -0.04983191
Li       5.10170253      28.94899452     -25.36206145        1       0.00227750       0.00188093      -0.11296325       0.00002448       0.00001232       0.00002530       0.00000081      -0.00000022      -0.00000064      -0.04983191
P        5.10170253      13.45353649     -23.25041204        2      -0.01603218      -0.00384690       0.05241836       0.00004618       0.00003532       0.00004615       0.00000237      -0.00000117      -0.00000034      -0.12361527
S        7.34708021      28.03700738     -26.55542845        3      -0.57674872       2.04837139      -0.05047491       0.00005210       0.00024598       0.00001410       0.00000027       0.00000360      -0.00004999      -0.43449715
S        6.73878998      31.17184135     -22.27376465        3       0.63542324       2.12227567       0.06040366       0.00005014       0.00024450       0.00001294       0.00000046       0.00000191       0.00005099      -0.46268478
S        5.10170253      12.79363885     -25.12038278        4       0.00044132       0.03725560      -0.00224237       0.00002197       0.00001240       0.00004817       0.00000789      -0.00000004      -0.00000061      -0.07294624
S        1.21923505      12.55015905     -25.68942158        5       0.00610527      -0.08226780      -0.08079527       0.00002703       0.00003507       0.00002102      -0.00000421      -0.00000041       0.00000026      -0.06786222
S        5.10170253      27.93372779     -23.13977153        5       0.00610556      -0.08226780       0.08079528       0.00002703       0.00003507       0.00002102       0.00000421       0.00000041       0.00000026      -0.06786223
Li       6.98285279      29.26260541     -26.58142684        0       0.63408220      -2.04222181       0.09910573       0.00004731       0.00024521       0.00000925      -0.00000333       0.00000172      -0.00006235      -0.41988434
Li       7.10301740      26.14825837     -30.89853683        0      -0.68554818      -2.08144702      -0.10005042       0.00004718       0.00024705       0.00000904       0.00000384       0.00000160       0.00006388      -0.45511942
Li       1.21923505      13.56542579     -27.79251694        1       0.00227721       0.00188093       0.11296324       0.00002448       0.00001232       0.00002530      -0.00000081       0.00000022      -0.00000064      -0.04983191
Li       5.10170253      28.94899452     -29.68744673        1       0.00227750       0.00188093      -0.11296325       0.00002448       0.00001232       0.00002530       0.00000081      -0.00000022      -0.00000064      -0.04983191
P        5.10170253      13.45353649     -27.57579732        2      -0.01603218      -0.00384690       0.05241836       0.00004618       0.00003532       0.00004615       0.00000237      -0.00000117      -0.00000034      -0.12361527
S        7.34708021      28.03700738     -30.88081373        3      -0.57674872       2.04837139      -0.05047491       0.00005210       0.00024598       0.00001410       0.00000027       0.00000360      -0.00004999      -0.43449715
S        6.73878998      31.17184135     -26.59914993        3       0.63542324       2.12227567       0.06040366       0.00005014       0.00024450       0.00001294       0.00000046       0.00000191       0.00005099      -0.46268478
S        5.10170253      12.79363885     -29.44576805        4       0.00044132       0.03725560      -0.00224237       0.00002197       0.00001240       0.00004817       0.00000789      -0.00000004      -0.00000061      -0.07294624
S        1.21923505      12.55015905     -30.01480686        5       0.00610527      -0.08226780      -0.08079527       0.00002703       0.00003507       0.00002102      -0.00000421      -0.00000041       0.00000026      -0.06786222
S        5.10170253      27.93372779     -27.46515681        5       0.00610556      -0.08226780       0.08079528       0.00002703       0.00003507       0.00002102       0.00000421       0.00000041       0.00000026      -0.06786223
Li       6.98285279      29.26260541     -30.90681211        0       0.63408220      -2.04222181       0.09910573       0.00004731       0.00024521       0.00000925      -0.00000333       0.00000172      -0.00006235      -0.41988434
Li       7.04469297      25.95679896     -35.22803727        0       0.07584575       0.00587835      -0.06939056       0.00002763       0.00001880       0.00001228       0.00000064      -0.00000656       0.00000473      -0.05169444
Li       1.21923505      13.56542579     -32.11790221        1       0.00227721       0.00187735       0.11295720       0.00002448       0.00001232       0.00002530      -0.00000081       0.00000022      -0.00000064      -0.04983314
Li       5.10170253      28.94900360     -34.01275093        1      -0.00940404      -0.00489726      -0.00076858       0.00000936       0.00000998       0.00001262       0.00000032       0.00000135       0.00000030      -0.02175384
P        5.10170253      13.45353649     -31.90118260        2      -0.01603218      -0.00386762       0.05236943       0.00004618       0.00003532       0.00004615       0.00000237      -0.00000117      -0.00000034      -0.12362301
S        7.28872315      28.23337032     -35.21032287        3       0.24729975       0.61783669      -0.71018090       0.00002376       0.00006300       0.00007725      -0.00005207      -0.00000645       0.00001516      -0.18019076
S        6.73878998      31.17184135     -30.92453521        3       0.63542324       2.12227567       0.06040366       0.00005014       0.00024450       0.00001294       0.00000046       0.00000191       0.00005099      -0.46268478
S        5.10170253      12.79363408     -33.77106641        4       0.00828672       0.05076694       0.13016804       0.00000773       0.00001177       0.00003180       0.00000676      -0.00000128       0.00000023      -0.04361543
S        1.21923505      12.55014491     -34.34012656        5       0.02359489      -0.09481371       0.00092666       0.00001223       0.00002942       0.00001180      -0.00000070      -0.00000284       0.00000011      -0.04587873
S        5.10170253      27.93372779     -31.79054209        5       0.00610556      -0.08226330       0.08078733       0.00002703       0.00003507       0.00002102       0.00000421       0.00000041       0.00000026      -0.06786383
Li       3.16222628      16.79183750      -0.62500000        0      -0.18539037       0.39707607       0.47690835       0.00001687       0.00004507       0.00005143       0.00003599      -0.00001761      -0.00001591      -0.11681151
Li       7.04117722      16.62903554      -0.62500000        0       0.13699466      -0.69553301       1.38824477       0.00001106       0.00004947       0.00013739      -0.00006606       0.00001529      -0.00000714      -0.23997157
Li       7.10301740      32.36686568      -4.94622515        0      -0.68554818      -2.08144702      -0.10005042       0.00004718       0.00024705       0.00000904       0.00000384       0.00000160       0.00006388      -0.45511942
Li       1.21923505      19.78404218      -1.84028634        1      -0.00260888       0.01227673       0.00496542       0.00000902       0.00001004       0.00001352       0.00000282      -0.00000013      -0.00000010      -0.02243409
Li       5.10170253      16.51177990      -3.73513505        1       0.00227750       0.00187734      -0.11295720       0.00002448       0.00001232       0.00002530       0.00000081      -0.00000022      -0.00000064      -0.04983314