504
Lattice="-4.166030694342068e-16 18.6558219398172 0.0 7.764933388889874 18.32992290740971 0.0 0.0 0.0 48.75410436004797" Properties=species:S:1:pos:R:3:spacegroup_kinds:I:1:forces:R:3:stresses:R:6:energies:R:1 spacegroup="P m n 21" unit_cell=conventional occupancy="_JSON {\"0\": {\"Li\": 1.0}, \"1\": {\"Li\": 1.0}, \"2\": {\"P\": 1.0}, \"3\": {\"S\": 0.97}, \"4\": {\"S\": 0.98}, \"5\": {\"S\": 0.99}}" energy=-104.32603134657819 stress="0.01521983447506096 -0.00019224179550376248 3.278812311831575e-06 -0.00019224179550376248 0.044731982086014664 1.687107907550328e-06 3.278812311831575e-06 1.687107907550328e-06 0.01879613005463033" free_energy=-104.32603134657819 pbc="T T T"
Li       1.75206843       4.31953572      44.26896931        1       0.00227750       0.00187734      -0.11295720       0.00002298       0.00001156       0.00002375       0.00000076      -0.00000020      -0.00000060      -0.04983314
Li       1.75206843       4.31953572      39.94358403        1       0.00227750       0.00188093      -0.11296325       0.00002298       0.00001156       0.00002375       0.00000076      -0.00000020      -0.00000060      -0.04983191
Li       1.75206843       4.31953572      35.61819875        1       0.00227750       0.00188093      -0.11296325       0.00002298       0.00001156       0.00002375       0.00000076      -0.00000020      -0.00000060      -0.04983191
Li       1.75206843       4.31953572      31.29281347        1       0.00227750       0.00188093      -0.11296325       0.00002298       0.00001156       0.00002375       0.00000076      -0.00000020      -0.00000060      -0.04983191
Li       1.75206843       4.31953572      26.96742819        1       0.00227750       0.00188093      -0.11296325       0.00002298       0.00001156       0.00002375       0.00000076      -0.00000020      -0.00000060      -0.04983191
Li       1.75206843       4.31953572      22.64204291        1       0.00227750       0.00188093      -0.11296325       0.00002298       0.00001156       0.00002375       0.00000076      -0.00000020      -0.00000060      -0.04983191
Li       1.75206843       4.31953572      18.31665763        1       0.00227750       0.00188093      -0.11296325       0.00002298       0.00001156       0.00002375       0.00000076      -0.00000020      -0.00000060      -0.04983191
Li       1.75206843       4.31954481      13.99135343        1      -0.00375668       0.00310192       0.01534218       0.00000846       0.00000870       0.00000915      -0.00000104       0.00000032      -0.00000019      -0.02012409
Li       3.69154312      10.65539869      47.37910436        0      -0.02101061       0.03663728      -0.02593236       0.00000892       0.00001366       0.00000492       0.00000313       0.00000067       0.00000076      -0.02157479
Li       3.75338330       7.73740688      43.05787921        0      -0.68554818      -2.08144702      -0.10005042       0.00004430       0.00023194       0.00000849       0.00000361       0.00000150       0.00005997      -0.45511942
Li       5.63453435      13.48450629      46.16381802        1      -0.00375677       0.00310192      -0.01534217       0.00000846       0.00000870       0.00000915       0.00000104      -0.00000032      -0.00000019      -0.02012409
Li       1.75206843      10.53814304      44.26896931        1       0.00227750       0.00187734      -0.11295720       0.00002298       0.00001156       0.00002375       0.00000076      -0.00000020      -0.00000060      -0.04983314
Li       3.63321870      10.85175392      43.04960392        0       0.63408220      -2.04222181       0.09910573       0.00004442       0.00023021       0.00000868      -0.00000312       0.00000162      -0.00005853      -0.41988434
Li       3.75338330       7.73740688      38.73249393        0      -0.68554818      -2.08144702      -0.10005042       0.00004430       0.00023194       0.00000849       0.00000361       0.00000150       0.00005997      -0.45511942
Li       5.63453435      13.48449721      41.83851382        1       0.00227721       0.00188093       0.11296324       0.00002298       0.00001156       0.00002375      -0.00000076       0.00000020      -0.00000060      -0.04983191
Li       1.75206843      10.53814304      39.94358403        1       0.00227750       0.00188093      -0.11296325       0.00002298       0.00001156       0.00002375       0.00000076      -0.00000020      -0.00000060      -0.04983191
Li       3.63321870      10.85175392      38.72421864        0       0.63408220      -2.04222181       0.09910573       0.00004442       0.00023021       0.00000868      -0.00000312       0.00000162      -0.00005853      -0.41988434
Li       3.75338330       7.73740688      34.40710865        0      -0.68554818      -2.08144702      -0.10005042       0.00004430       0.00023194       0.00000849       0.00000361       0.00000150       0.00005997      -0.45511942
Li       5.63453435      13.48449721      37.51312854        1       0.00227721       0.00188093       0.11296324       0.00002298       0.00001156       0.00002375      -0.00000076       0.00000020      -0.00000060      -0.04983191
Li       1.75206843      10.53814304      35.61819875        1       0.00227750       0.00188093      -0.11296325       0.00002298       0.00001156       0.00002375       0.00000076      -0.00000020      -0.00000060      -0.04983191
Li       3.63321870      10.85175392      34.39883336        0       0.63408220      -2.04222181       0.09910573       0.00004442       0.00023021       0.00000868      -0.00000312       0.00000162      -0.00005853      -0.41988434
Li       3.75338330       7.73740688      30.08172337        0      -0.68554818      -2.08144702      -0.10005042       0.00004430       0.00023194       0.00000849       0.00000361       0.00000150       0.00005997      -0.45511942
Li       5.63453435      13.48449721      33.18774326        1       0.00227721       0.00188093       0.11296324       0.00002298       0.00001156       0.00002375      -0.00000076       0.00000020      -0.00000060      -0.04983191
Li       1.75206843      10.53814304      31.29281347        1       0.00227750       0.00188093      -0.11296325       0.00002298       0.00001156       0.00002375       0.00000076      -0.00000020      -0.00000060      -0.04983191
Li       3.63321870      10.85175392      30.07344808        0       0.63408220      -2.04222181       0.09910573       0.00004442       0.00023021       0.00000868      -0.00000312       0.00000162      -0.00005853      -0.41988434
Li       3.75338330       7.73740688      25.75633809        0      -0.68554818      -2.08144702      -0.10005042       0.00004430       0.00023194       0.00000849       0.00000361       0.00000150       0.00005997      -0.45511942
Li       5.63453435      13.48449721      28.86235798        1       0.00227721       0.00188093       0.11296324       0.00002298       0.00001156       0.00002375      -0.00000076       0.00000020      -0.00000060      -0.04983191
Li       1.75206843      10.53814304      26.96742819        1       0.00227750       0.00188093      -0.11296325       0.00002298       0.00001156       0.00002375       0.00000076      -0.00000020      -0.00000060      -0.04983191
Li       3.63321870      10.85175392      25.74806280        0       0.63408220      -2.04222181       0.09910573       0.00004442       0.00023021       0.00000868      -0.00000312       0.00000162      -0.00005853      -0.41988434
Li       3.75338330       7.73740688      21.43095281        0      -0.68554818      -2.08144702      -0.10005042       0.00004430       0.00023194       0.00000849       0.00000361       0.00000150       0.00005997      -0.45511942
Li       5.63453435      13.48449721      24.53697270        1       0.00227721       0.00188093       0.11296324       0.00002298       0.00001156       0.00002375      -0.00000076       0.00000020      -0.00000060      -0.04983191
Li       1.75206843      10.53814304      22.64204291        1       0.00227750       0.00188093      -0.11296325       0.00002298       0.00001156       0.00002375       0.00000076      -0.00000020      -0.00000060      -0.04983191
Li       3.63321870      10.85175392      21.42267752        0       0.63408220      -2.04222181       0.09910573       0.00004442       0.00023021       0.00000868      -0.00000312       0.00000162      -0.00005853      -0.41988434
Li       3.75338330       7.73740688      17.10556753        0      -0.68554818      -2.08144702      -0.10005042       0.00004430       0.00023194       0.00000849       0.00000361       0.00000150       0.00005997      -0.45511942
Li       5.63453435      13.48449721      20.21158742        1       0.00227721       0.00188093       0.11296324       0.00002298       0.00001156       0.00002375      -0.00000076       0.00000020      -0.00000060      -0.04983191
Li       1.75206843      10.53814304      18.31665763        1       0.00227750       0.00188093      -0.11296325       0.00002298       0.00001156       0.00002375       0.00000076      -0.00000020      -0.00000060      -0.04983191
Li       3.63321870      10.85175392      17.09729225        0       0.63408220      -2.04222181       0.09910573       0.00004442       0.00023021       0.00000868      -0.00000312       0.00000162      -0.00005853      -0.41988434
Li       3.69505888       7.54594747      12.77606709        0       0.01117189       0.04068038       0.03496819       0.00000808       0.00001390       0.00000298      -0.00000225      -0.00000086      -0.00000019      -0.02132195
Li       5.63453435      13.48449721      15.88620215        1       0.00227721       0.00187735       0.11295720       0.00002298       0.00001156       0.00002375      -0.00000076       0.00000020      -0.00000060      -0.04983314
Li       1.75206843      10.53815212      13.99135343        1      -0.00375668       0.00310192       0.01534218       0.00000846       0.00000870       0.00000915      -0.00000104       0.00000032      -0.00000019      -0.02012409
Li       7.57752557      16.71090892      47.37910436        0       0.01117188       0.04068044      -0.03496812       0.00000808       0.00001390       0.00000298       0.00000225       0.00000086      -0.00000019      -0.02132193
Li       3.69154312      16.87400600      47.37910436        0      -0.02379631       0.03324929      -0.03610185       0.00000877       0.00001344       0.00000294       0.00000247       0.00000012       0.00000058      -0.02154662
Li       3.75338330      13.95601420      43.05787921        0      -0.68554818      -2.08144702      -0.10005042       0.00004430       0.00023194       0.00000849       0.00000361       0.00000150       0.00005997      -0.45511942
Li       5.63453435      19.70311360      46.16381802        1      -0.00375677       0.00310192      -0.01534217       0.00000846       0.00000870       0.00000915       0.00000104      -0.00000032      -0.00000019      -0.02012409
Li       1.75206843      16.75675035      44.26896931        1       0.00227750       0.00187734      -0.11295720       0.00002298       0.00001156       0.00002375       0.00000076      -0.00000020      -0.00000060      -0.04983314
Li       7.63585000      16.90236834      43.04960392        0      -0.68554813      -2.08144693       0.10005028       0.00004430       0.00023194       0.00000849      -0.00000361      -0.00000150       0.00005997      -0.45511935
Li       3.63321870      17.07036124      43.04960392        0       0.63408220      -2.04222181       0.09910573       0.00004442       0.00023021       0.00000868      -0.00000312       0.00000162      -0.00005853      -0.41988434
Li       3.75338330      13.95601420      38.73249393        0      -0.68554818      -2.08144702      -0.10005042       0.00004430       0.00023194       0.00000849       0.00000361       0.00000150       0.00005997      -0.45511942
Li       5.63453435      19.70310452      41.83851382        1       0.00227721       0.00188093       0.11296324       0.00002298       0.00001156       0.00002375      -0.00000076       0.00000020      -0.00000060      -0.04983191
Li       1.75206843      16.75675035      39.94358403        1       0.00227750       0.00188093      -0.11296325       0.00002298       0.00001156       0.00002375       0.00000076      -0.00000020      -0.00000060      -0.04983191
Li       7.63585000      16.90236834      38.72421864        0      -0.68554813      -2.08144693       0.10005028       0.00004430       0.00023194       0.00000849      -0.00000361      -0.00000150       0.00005997      -0.45511935
Li       3.63321870      17.07036124      38.72421864        0       0.63408220      -2.04222181       0.09910573       0.00004442       0.00023021       0.00000868      -0.00000312       0.00000162      -0.00005853      -0.41988434
Li       3.75338330      13.95601420      34.40710865        0      -0.68554818      -2.08144702      -0.10005042       0.00004430       0.00023194       0.00000849       0.00000361       0.00000150       0.00005997      -0.45511942
Li       5.63453435      19.70310452      37.51312854        1       0.00227721       0.00188093       0.11296324       0.00002298       0.00001156       0.00002375      -0.00000076       0.00000020      -0.00000060      -0.04983191
Li       1.75206843      16.75675035      35.61819875        1       0.00227750       0.00188093      -0.11296325       0.00002298       0.00001156       0.00002375       0.00000076      -0.00000020      -0.00000060      -0.04983191
Li       7.63585000      16.90236834      34.39883336        0      -0.68554813      -2.08144693       0.10005028       0.00004430       0.00023194       0.00000849      -0.00000361      -0.00000150       0.00005997      -0.45511935
Li       3.63321870      17.07036124      34.39883336        0       0.63408220      -2.04222181       0.09910573       0.00004442       0.00023021       0.00000868      -0.00000312       0.00000162      -0.00005853      -0.41988434
Li       3.75338330      13.95601420      30.08172337        0      -0.68554818      -2.08144702      -0.10005042       0.00004430       0.00023194       0.00000849       0.00000361       0.00000150       0.00005997      -0.45511942
Li       5.63453435      19.70310452      33.18774326        1       0.00227721       0.00188093       0.11296324       0.00002298       0.00001156       0.00002375      -0.00000076       0.00000020      -0.00000060      -0.04983191
Li       1.75206843      16.75675035      31.29281347        1       0.00227750       0.00188093      -0.11296325       0.00002298       0.00001156       0.00002375       0.00000076      -0.00000020      -0.00000060      -0.04983191
Li       7.63585000      16.90236834      30.07344808        0      -0.68554813      -2.08144693       0.10005028       0.00004430       0.00023194       0.00000849      -0.00000361      -0.00000150       0.00005997      -0.45511935
Li       3.63321870      17.07036124      30.07344808        0       0.63408220      -2.04222181       0.09910573       0.00004442       0.00023021       0.00000868      -0.00000312       0.00000162      -0.00005853      -0.41988434
Li       3.75338330      13.95601420      25.75633809        0      -0.68554818      -2.08144702      -0.10005042       0.00004430       0.00023194       0.00000849       0.00000361       0.00000150       0.00005997      -0.45511942
Li       5.63453435      19.70310452      28.86235798        1       0.00227721       0.00188093       0.11296324       0.00002298       0.00001156       0.00002375      -0.00000076       0.00000020      -0.00000060      -0.04983191
Li       1.75206843      16.75675035      26.96742819        1       0.00227750       0.00188093      -0.11296325       0.00002298       0.00001156       0.00002375       0.00000076      -0.00000020      -0.00000060      -0.04983191
Li       7.63585000      16.90236834      25.74806280        0      -0.68554813      -2.08144693       0.10005028       0.00004430       0.00023194       0.00000849      -0.00000361      -0.00000150       0.00005997      -0.45511935
Li       3.63321870      17.07036124      25.74806280        0       0.63408220      -2.04222181       0.09910573       0.00004442       0.00023021       0.00000868      -0.00000312       0.00000162      -0.00005853      -0.41988434
Li       3.75338330      13.95601420      21.43095281        0      -0.68554818      -2.08144702      -0.10005042       0.00004430       0.00023194       0.00000849       0.00000361       0.00000150       0.00005997      -0.45511942
Li       5.63453435      19.70310452      24.53697270        1       0.00227721       0.00188093       0.11296324       0.00002298       0.00001156       0.00002375      -0.00000076       0.00000020      -0.00000060      -0.04983191
Li       1.75206843      16.75675035      22.64204291        1       0.00227750       0.00188093      -0.11296325       0.00002298       0.00001156       0.00002375       0.00000076      -0.00000020      -0.00000060      -0.04983191
Li       7.63585000      16.90236834      21.42267752        0      -0.68554813      -2.08144693       0.10005028       0.00004430       0.00023194       0.00000849      -0.00000361      -0.00000150       0.00005997      -0.45511935
Li       3.63321870      17.07036124      21.42267752        0       0.63408220      -2.04222181       0.09910573       0.00004442       0.00023021       0.00000868      -0.00000312       0.00000162      -0.00005853      -0.41988434
Li       3.75338330      13.95601420      17.10556753        0      -0.68554818      -2.08144702      -0.10005042       0.00004430       0.00023194       0.00000849       0.00000361       0.00000150       0.00005997      -0.45511942
Li       5.63453435      19.70310452      20.21158742        1       0.00227721       0.00188093       0.11296324       0.00002298       0.00001156       0.00002375      -0.00000076       0.00000020      -0.00000060      -0.04983191
Li       1.75206843      16.75675035      18.31665763        1       0.00227750       0.00188093      -0.11296325       0.00002298       0.00001156       0.00002375       0.00000076      -0.00000020      -0.00000060      -0.04983191
Li       7.63585000      16.90236834      17.09729225        0      -0.68554813      -2.08144693       0.10005028       0.00004430       0.00023194       0.00000849      -0.00000361      -0.00000150       0.00005997      -0.45511935
Li       3.63321870      17.07036124      17.09729225        0       0.63408220      -2.04222181       0.09910573       0.00004442       0.00023021       0.00000868      -0.00000312       0.00000162      -0.00005853      -0.41988434
Li       3.69505888      13.76455478      12.77606709        0       0.01117189       0.04068038       0.03496819       0.00000808       0.00001390       0.00000298      -0.00000225      -0.00000086      -0.00000019      -0.02132195
Li       5.63453435      19.70310452      15.88620215        1       0.00227721       0.00187735       0.11295720       0.00002298       0.00001156       0.00002375      -0.00000076       0.00000020      -0.00000060      -0.04983314
Li       1.75206843      16.75675943      13.99135343        1      -0.00375668       0.00310192       0.01534218       0.00000846       0.00000870       0.00000915      -0.00000104       0.00000032      -0.00000019      -0.02012409
Li       7.57752557      22.92951624      47.37910436        0       0.00900063       0.04455185      -0.02399965       0.00000816       0.00001416       0.00000512       0.00000300       0.00000044      -0.00000034      -0.02151176
Li       3.69154312      23.09261331      47.37910436        0      -0.02315985       0.02958638      -0.01962449       0.00000878       0.00001360       0.00000614       0.00000176       0.00000025       0.00000055      -0.02278314
Li       7.51568539      20.01671538      43.05787921        0       0.63408219      -2.04222172      -0.09910560       0.00004442       0.00023021       0.00000868       0.00000312      -0.00000162      -0.00005853      -0.41988427
Li       3.75338330      20.17462151      43.05787921        0      -0.68554818      -2.08144702      -0.10005042       0.00004430       0.00023194       0.00000849       0.00000361       0.00000150       0.00005997      -0.45511942
Li       5.63453435      25.92172092      46.16381802        1      -0.00375677       0.00310192      -0.01534217       0.00000846       0.00000870       0.00000915       0.00000104      -0.00000032      -0.00000019      -0.02012409
Li       7.63585000      23.12097565      43.04960392        0      -0.68554813      -2.08144693       0.10005028       0.00004430       0.00023194       0.00000849      -0.00000361      -0.00000150       0.00005997      -0.45511935
Li       3.63321870      23.28896855      43.04960392        0       0.63408220      -2.04222181       0.09910573       0.00004442       0.00023021       0.00000868      -0.00000312       0.00000162      -0.00005853      -0.41988434
Li       7.51568539      20.01671538      38.73249393        0       0.63408219      -2.04222172      -0.09910560       0.00004442       0.00023021       0.00000868       0.00000312      -0.00000162      -0.00005853      -0.41988427
Li       3.75338330      20.17462151      38.73249393        0      -0.68554818      -2.08144702      -0.10005042       0.00004430       0.00023194       0.00000849       0.00000361       0.00000150       0.00005997      -0.45511942
Li       5.63453435      25.92171184      41.83851382        1       0.00227721       0.00188093       0.11296324       0.00002298       0.00001156       0.00002375      -0.00000076       0.00000020      -0.00000060      -0.04983191
Li       7.63585000      23.12097565      38.72421864        0      -0.68554813      -2.08144693       0.10005028       0.00004430       0.00023194       0.00000849      -0.00000361      -0.00000150       0.00005997      -0.45511935
Li       3.63321870      23.28896855      38.72421864        0       0.63408220      -2.04222181       0.09910573       0.00004442       0.00023021       0.00000868      -0.00000312       0.00000162      -0.00005853      -0.41988434
Li       7.51568539      20.01671538      34.40710865        0       0.63408219      -2.04222172      -0.09910560       0.00004442       0.00023021       0.00000868       0.00000312      -0.00000162      -0.00005853      -0.41988427
Li       3.75338330      20.17462151      34.40710865        0      -0.68554818      -2.08144702      -0.10005042       0.00004430       0.00023194       0.00000849       0.00000361       0.00000150       0.00005997      -0.45511942
Li       5.63453435      25.92171184      37.51312854        1       0.00227721       0.00188093       0.11296324       0.00002298       0.00001156       0.00002375      -0.00000076       0.00000020      -0.00000060      -0.04983191
Li       7.63585000      23.12097565      34.39883336        0      -0.68554813      -2.08144693       0.10005028       0.00004430       0.00023194       0.00000849      -0.00000361      -0.00000150       0.00005997      -0.45511935
Li       3.63321870      23.28896855      34.39883336        0       0.63408220      -2.04222181       0.09910573       0.00004442       0.00023021       0.00000868      -0.00000312       0.00000162      -0.00005853      -0.41988434
Li       7.51568539      20.01671538      30.08172337        0       0.63408219      -2.04222172      -0.09910560       0.00004442       0.00023021       0.00000868       0.00000312      -0.00000162      -0.00005853      -0.41988427
Li       3.75338330      20.17462151      30.08172337        0      -0.68554818      -2.08144702      -0.10005042       0.00004430       0.00023194       0.00000849       0.00000361       0.00000150       0.00005997      -0.45511942
Li       5.63453435      25.92171184      33.18774326        1       0.00227721       0.00188093       0.11296324       0.00002298       0.00001156       0.00002375      -0.00000076       0.00000020      -0.00000060      -0.04983191
Li       7.63585000      23.12097565      30.07344808        0      -0.68554813      -2.08144693       0.10005028       0.00004430       0.00023194       0.00000849      -0.00000361      -0.00000150       0.00005997      -0.45511935
Li       3.63321870      23.28896855      30.07344808        0       0.63408220      -2.04222181       0.09910573       0.00004442       0.00023021       0.00000868      -0.00000312       0.00000162      -0.00005853      -0.41988434
Li       7.51568539      20.01671538      25.75633809        0       0.63408219      -2.04222172      -0.09910560       0.00004442       0.00023021       0.00000868       0.00000312      -0.00000162      -0.00005853      -0.41988427
Li       3.75338330      20.17462151      25.75633809        0      -0.68554818      -2.08144702      -0.10005042       0.00004430       0.00023194       0.00000849       0.00000361       0.00000150       0.00005997      -0.45511942
Li       5.63453435      25.92171184      28.86235798        1       0.00227721       0.00188093       0.11296324       0.00002298       0.00001156       0.00002375      -0.00000076       0.00000020      -0.00000060      -0.04983191
Li       7.63585000      23.12097565      25.74806280        0      -0.68554813      -2.08144693       0.10005028       0.00004430       0.00023194       0.00000849      -0.00000361      -0.00000150       0.00005997      -0.45511935
Li       3.63321870      23.28896855      25.74806280        0       0.63408220      -2.04222181       0.09910573       0.00004442       0.00023021       0.00000868      -0.00000312       0.00000162      -0.00005853      -0.41988434
Li       7.51568539      20.01671538      21.43095281        0       0.63408219      -2.04222172      -0.09910560       0.00004442       0.00023021       0.00000868       0.00000312      -0.00000162      -0.00005853      -0.41988427
Li       3.75338330      20.17462151      21.43095281        0      -0.68554818      -2.08144702      -0.10005042       0.00004430       0.00023194       0.00000849       0.00000361       0.00000150       0.00005997      -0.45511942
Li       5.63453435      25.92171184      24.53697270        1       0.00227721       0.00188093       0.11296324       0.00002298       0.00001156       0.00002375      -0.00000076       0.00000020      -0.00000060      -0.04983191
Li       7.63585000      23.12097565      21.42267752        0      -0.68554813      -2.08144693       0.10005028       0.00004430       0.00023194       0.00000849      -0.00000361      -0.00000150       0.00005997      -0.45511935
Li       3.63321870      23.28896855      21.42267752        0       0.63408220      -2.04222181       0.09910573       0.00004442       0.00023021       0.00000868      -0.00000312       0.00000162      -0.00005853      -0.41988434
Li       7.51568539      20.01671538      17.10556753        0       0.63408219      -2.04222172      -0.09910560       0.00004442       0.00023021       0.00000868       0.00000312      -0.00000162      -0.00005853      -0.41988427
Li       3.75338330      20.17462151      17.10556753        0      -0.68554818      -2.08144702      -0.10005042       0.00004430       0.00023194       0.00000849       0.00000361       0.00000150       0.00005997      -0.45511942
Li       5.63453435      25.92171184      20.21158742        1       0.00227721       0.00188093       0.11296324       0.00002298       0.00001156       0.00002375      -0.00000076       0.00000020      -0.00000060      -0.04983191
Li       7.63585000      23.12097565      17.09729225        0      -0.68554813      -2.08144693       0.10005028       0.00004430       0.00023194       0.00000849      -0.00000361      -0.00000150       0.00005997      -0.45511935
Li       3.63321870      23.28896855      17.09729225        0       0.63408220      -2.04222181       0.09910573       0.00004442       0.00023021       0.00000868      -0.00000312       0.00000162      -0.00005853      -0.41988434
Li       7.57400982      19.82036014      12.77606709        0      -0.02462544       0.02800283       0.02603497       0.00000879       0.00001395       0.00000482      -0.00000149       0.00000003       0.00000066      -0.02164049
Li       3.69505888      19.98316210      12.77606709        0       0.00544437       0.04204567       0.01755666       0.00000843       0.00001392       0.00000624      -0.00000250       0.00000021      -0.00000027      -0.02285744
Li       5.63453435      25.92171184      15.88620215        1       0.00227721       0.00187735       0.11295720       0.00002298       0.00001156       0.00002375      -0.00000076       0.00000020      -0.00000060      -0.04983314
Li       7.57752557      29.14812355      47.37910436        0       0.01117188       0.04068044      -0.03496812       0.00000808       0.00001390       0.00000298       0.00000225       0.00000086      -0.00000019      -0.02132193
Li       7.51568539      26.23532269      43.05787921        0       0.63408219      -2.04222172      -0.09910560       0.00004442       0.00023021       0.00000868       0.00000312      -0.00000162      -0.00005853      -0.41988427
Li       7.63585000      29.33958296      43.04960392        0      -0.68554813      -2.08144693       0.10005028       0.00004430       0.00023194       0.00000849      -0.00000361      -0.00000150       0.00005997      -0.45511935
Li       7.51568539      26.23532269      38.73249393        0       0.63408219      -2.04222172      -0.09910560       0.00004442       0.00023021       0.00000868       0.00000312      -0.00000162      -0.00005853      -0.41988427
Li       7.63585000      29.33958296      38.72421864        0      -0.68554813      -2.08144693       0.10005028       0.00004430       0.00023194       0.00000849      -0.00000361      -0.00000150       0.00005997      -0.45511935