504
Lattice="-4.166030694342068e-16 18.6558219398172 0.0 7.764933388889874 18.32992290740971 0.0 0.0 0.0 46.56965208117043" Properties=species:S:1:pos:R:3:spacegroup_kinds:I:1:forces:R:3:stresses:R:6:energies:R:1 spacegroup="P m n 21" unit_cell=conventional occupancy="_JSON {\"0\": {\"Li\": 1.0}, \"1\": {\"Li\": 1.0}, \"2\": {\"P\": 1.0}, \"3\": {\"S\": 0.97}, \"4\": {\"S\": 0.98}, \"5\": {\"S\": 0.99}}" energy=-105.83708936499352 stress="0.01619305494819801 -0.0002197866073630357 4.684580105264541e-06 -0.0002197866073630357 0.04705745362107348 -2.8950726144066208e-05 4.684580105264541e-06 -2.8950726144066208e-05 0.0206806318513546" free_energy=-105.83708936499352 pbc="T T T"
Li       1.92618123       4.31857947      42.58451703        1       0.00227750       0.00187734      -0.11295720       0.00002406       0.00001211       0.00002487       0.00000080      -0.00000021      -0.00000063      -0.04983314
Li       1.92618123       4.31857947      38.25913175        1       0.00227750       0.00188093      -0.11296325       0.00002406       0.00001210       0.00002486       0.00000080      -0.00000021      -0.00000063      -0.04983191
Li       1.92618123       4.31857947      33.93374647        1       0.00227750       0.00188093      -0.11296325       0.00002406       0.00001210       0.00002486       0.00000080      -0.00000021      -0.00000063      -0.04983191
Li       1.92618123       4.31857947      29.60836119        1       0.00227750       0.00188093      -0.11296325       0.00002406       0.00001210       0.00002486       0.00000080      -0.00000021      -0.00000063      -0.04983191
Li       1.92618123       4.31857947      25.28297591        1       0.00227750       0.00188093      -0.11296325       0.00002406       0.00001210       0.00002486       0.00000080      -0.00000021      -0.00000063      -0.04983191
Li       1.92618123       4.31857947      20.95759063        1       0.00227750       0.00188093      -0.11296325       0.00002406       0.00001210       0.00002486       0.00000080      -0.00000021      -0.00000063      -0.04983191
Li       1.92618123       4.31857947      16.63220535        1       0.00227750       0.00188093      -0.11296325       0.00002406       0.00001210       0.00002486       0.00000080      -0.00000021      -0.00000063      -0.04983191
Li       1.92618123       4.31858855      12.30690115        1      -0.00813520       0.00537426      -0.00378249       0.00000905       0.00000916       0.00001336      -0.00000154       0.00000120      -0.00000030      -0.02193185
Li       3.86565593      10.65444243      45.69465208        0       0.01155987       0.11692972       0.13516990       0.00001013       0.00001937       0.00002529       0.00001344       0.00000472       0.00000284      -0.05135858
Li       3.92749610       7.73645063      41.37342693        0      -0.68554818      -2.08144702      -0.10005042       0.00004638       0.00024282       0.00000889       0.00000378       0.00000157       0.00006278      -0.45511942
Li       5.80864715      13.48355004      44.47936574        1      -0.00375677       0.00310192      -0.01534217       0.00000885       0.00000911       0.00000957       0.00000109      -0.00000033      -0.00000020      -0.02012409
Li       1.92618123      10.53718679      42.58451703        1       0.00227750       0.00187734      -0.11295720       0.00002406       0.00001211       0.00002487       0.00000080      -0.00000021      -0.00000063      -0.04983314
Li       3.80733150      10.85079767      41.36515164        0       0.63408220      -2.04222181       0.09910573       0.00004650       0.00024101       0.00000909      -0.00000327       0.00000169      -0.00006128      -0.41988434
Li       3.92749610       7.73645063      37.04804165        0      -0.68554818      -2.08144702      -0.10005042       0.00004638       0.00024282       0.00000889       0.00000378       0.00000157       0.00006278      -0.45511942
Li       5.80864715      13.48354096      40.15406154        1       0.00227721       0.00188093       0.11296324       0.00002406       0.00001210       0.00002486      -0.00000080       0.00000021      -0.00000063      -0.04983191
Li       1.92618123      10.53718679      38.25913175        1       0.00227750       0.00188093      -0.11296325       0.00002406       0.00001210       0.00002486       0.00000080      -0.00000021      -0.00000063      -0.04983191
Li       3.80733150      10.85079767      37.03976636        0       0.63408220      -2.04222181       0.09910573       0.00004650       0.00024101       0.00000909      -0.00000327       0.00000169      -0.00006128      -0.41988434
Li       3.92749610       7.73645063      32.72265637        0      -0.68554818      -2.08144702      -0.10005042       0.00004638       0.00024282       0.00000889       0.00000378       0.00000157       0.00006278      -0.45511942
Li       5.80864715      13.48354096      35.82867626        1       0.00227721       0.00188093       0.11296324       0.00002406       0.00001210       0.00002486      -0.00000080       0.00000021      -0.00000063      -0.04983191
Li       1.92618123      10.53718679      33.93374647        1       0.00227750       0.00188093      -0.11296325       0.00002406       0.00001210       0.00002486       0.00000080      -0.00000021      -0.00000063      -0.04983191
Li       3.80733150      10.85079767      32.71438108        0       0.63408220      -2.04222181       0.09910573       0.00004650       0.00024101       0.00000909      -0.00000327       0.00000169      -0.00006128      -0.41988434
Li       3.92749610       7.73645063      28.39727109        0      -0.68554818      -2.08144702      -0.10005042       0.00004638       0.00024282       0.00000889       0.00000378       0.00000157       0.00006278      -0.45511942
Li       5.80864715      13.48354096      31.50329098        1       0.00227721       0.00188093       0.11296324       0.00002406       0.00001210       0.00002486      -0.00000080       0.00000021      -0.00000063      -0.04983191
Li       1.92618123      10.53718679      29.60836119        1       0.00227750       0.00188093      -0.11296325       0.00002406       0.00001210       0.00002486       0.00000080      -0.00000021      -0.00000063      -0.04983191
Li       3.80733150      10.85079767      28.38899580        0       0.63408220      -2.04222181       0.09910573       0.00004650       0.00024101       0.00000909      -0.00000327       0.00000169      -0.00006128      -0.41988434
Li       3.92749610       7.73645063      24.07188581        0      -0.68554818      -2.08144702      -0.10005042       0.00004638       0.00024282       0.00000889       0.00000378       0.00000157       0.00006278      -0.45511942
Li       5.80864715      13.48354096      27.17790570        1       0.00227721       0.00188093       0.11296324       0.00002406       0.00001210       0.00002486      -0.00000080       0.00000021      -0.00000063      -0.04983191
Li       1.92618123      10.53718679      25.28297591        1       0.00227750       0.00188093      -0.11296325       0.00002406       0.00001210       0.00002486       0.00000080      -0.00000021      -0.00000063      -0.04983191
Li       3.80733150      10.85079767      24.06361052        0       0.63408220      -2.04222181       0.09910573       0.00004650       0.00024101       0.00000909      -0.00000327       0.00000169      -0.00006128      -0.41988434
Li       3.92749610       7.73645063      19.74650053        0      -0.68554818      -2.08144702      -0.10005042       0.00004638       0.00024282       0.00000889       0.00000378       0.00000157       0.00006278      -0.45511942
Li       5.80864715      13.48354096      22.85252043        1       0.00227721       0.00188093       0.11296324       0.00002406       0.00001210       0.00002486      -0.00000080       0.00000021      -0.00000063      -0.04983191
Li       1.92618123      10.53718679      20.95759063        1       0.00227750       0.00188093      -0.11296325       0.00002406       0.00001210       0.00002486       0.00000080      -0.00000021      -0.00000063      -0.04983191
Li       3.80733150      10.85079767      19.73822525        0       0.63408220      -2.04222181       0.09910573       0.00004650       0.00024101       0.00000909      -0.00000327       0.00000169      -0.00006128      -0.41988434
Li       3.92749610       7.73645063      15.42111525        0      -0.68554818      -2.08144702      -0.10005042       0.00004638       0.00024282       0.00000889       0.00000378       0.00000157       0.00006278      -0.45511942
Li       5.80864715      13.48354096      18.52713515        1       0.00227721       0.00188093       0.11296324       0.00002406       0.00001210       0.00002486      -0.00000080       0.00000021      -0.00000063      -0.04983191
Li       1.92618123      10.53718679      16.63220535        1       0.00227750       0.00188093      -0.11296325       0.00002406       0.00001210       0.00002486       0.00000080      -0.00000021      -0.00000063      -0.04983191
Li       3.80733150      10.85079767      15.41283997        0       0.63408220      -2.04222181       0.09910573       0.00004650       0.00024101       0.00000909      -0.00000327       0.00000169      -0.00006128      -0.41988434
Li       3.86917168       7.54499122      11.09161481        0       0.02289236       0.02509748      -0.07358782       0.00001083       0.00002814       0.00001482      -0.00000067      -0.00000217      -0.00000584      -0.04719355
Li       5.80864715      13.48354096      14.20174987        1       0.00227721       0.00187735       0.11295720       0.00002406       0.00001211       0.00002487      -0.00000080       0.00000021      -0.00000063      -0.04983314
Li       1.92618123      10.53719587      12.30690115        1      -0.00375668       0.00310192       0.01534218       0.00000885       0.00000911       0.00000957      -0.00000109       0.00000033      -0.00000020      -0.02012409
Li       7.75163837      16.70995267      45.69465208        0       0.00415613       0.04011454       0.02252820       0.00001479       0.00001575       0.00001058       0.00000228      -0.00000001       0.00000254      -0.03276881
Li       3.86565593      16.87304975      45.69465208        0      -0.02737236       0.02507163      -0.01604893       0.00001227       0.00001594       0.00000568       0.00000152      -0.00000033       0.00000013      -0.02183391
Li       3.92749610      13.95505794      41.37342693        0      -0.68554818      -2.08144702      -0.10005042       0.00004638       0.00024282       0.00000889       0.00000378       0.00000157       0.00006278      -0.45511942
Li       5.80864715      19.70215735      44.47936574        1      -0.00375677       0.00310192      -0.01534217       0.00000885       0.00000911       0.00000957       0.00000109      -0.00000033      -0.00000020      -0.02012409
Li       1.92618123      16.75579410      42.58451703        1       0.00227750       0.00187734      -0.11295720       0.00002406       0.00001211       0.00002487       0.00000080      -0.00000021      -0.00000063      -0.04983314
Li       7.80996280      16.90141208      41.36515164        0      -0.68554813      -2.08144693       0.10005028       0.00004638       0.00024282       0.00000889      -0.00000378      -0.00000157       0.00006278      -0.45511935
Li       3.80733150      17.06940498      41.36515164        0       0.63408220      -2.04222181       0.09910573       0.00004650       0.00024101       0.00000909      -0.00000327       0.00000169      -0.00006128      -0.41988434
Li       3.92749610      13.95505794      37.04804165        0      -0.68554818      -2.08144702      -0.10005042       0.00004638       0.00024282       0.00000889       0.00000378       0.00000157       0.00006278      -0.45511942
Li       5.80864715      19.70214827      40.15406154        1       0.00227721       0.00188093       0.11296324       0.00002406       0.00001210       0.00002486      -0.00000080       0.00000021      -0.00000063      -0.04983191
Li       1.92618123      16.75579410      38.25913175        1       0.00227750       0.00188093      -0.11296325       0.00002406       0.00001210       0.00002486       0.00000080      -0.00000021      -0.00000063      -0.04983191
Li       7.80996280      16.90141208      37.03976636        0      -0.68554813      -2.08144693       0.10005028       0.00004638       0.00024282       0.00000889      -0.00000378      -0.00000157       0.00006278      -0.45511935
Li       3.80733150      17.06940498      37.03976636        0       0.63408220      -2.04222181       0.09910573       0.00004650       0.00024101       0.00000909      -0.00000327       0.00000169      -0.00006128      -0.41988434
Li       3.92749610      13.95505794      32.72265637        0      -0.68554818      -2.08144702      -0.10005042       0.00004638       0.00024282       0.00000889       0.00000378       0.00000157       0.00006278      -0.45511942
Li       5.80864715      19.70214827      35.82867626        1       0.00227721       0.00188093       0.11296324       0.00002406       0.00001210       0.00002486      -0.00000080       0.00000021      -0.00000063      -0.04983191
Li       1.92618123      16.75579410      33.93374647        1       0.00227750       0.00188093      -0.11296325       0.00002406       0.00001210       0.00002486       0.00000080      -0.00000021      -0.00000063      -0.04983191
Li       7.80996280      16.90141208      32.71438108        0      -0.68554813      -2.08144693       0.10005028       0.00004638       0.00024282       0.00000889      -0.00000378      -0.00000157       0.00006278      -0.45511935
Li       3.80733150      17.06940498      32.71438108        0       0.63408220      -2.04222181       0.09910573       0.00004650       0.00024101       0.00000909      -0.00000327       0.00000169      -0.00006128      -0.41988434
Li       3.92749610      13.95505794      28.39727109        0      -0.68554818      -2.08144702      -0.10005042       0.00004638       0.00024282       0.00000889       0.00000378       0.00000157       0.00006278      -0.45511942
Li       5.80864715      19.70214827      31.50329098        1       0.00227721       0.00188093       0.11296324       0.00002406       0.00001210       0.00002486      -0.00000080       0.00000021      -0.00000063      -0.04983191
Li       1.92618123      16.75579410      29.60836119        1       0.00227750       0.00188093      -0.11296325       0.00002406       0.00001210       0.00002486       0.00000080      -0.00000021      -0.00000063      -0.04983191
Li       7.80996280      16.90141208      28.38899580        0      -0.68554813      -2.08144693       0.10005028       0.00004638       0.00024282       0.00000889      -0.00000378      -0.00000157       0.00006278      -0.45511935
Li       3.80733150      17.06940498      28.38899580        0       0.63408220      -2.04222181       0.09910573       0.00004650       0.00024101       0.00000909      -0.00000327       0.00000169      -0.00006128      -0.41988434
Li       3.92749610      13.95505794      24.07188581        0      -0.68554818      -2.08144702      -0.10005042       0.00004638       0.00024282       0.00000889       0.00000378       0.00000157       0.00006278      -0.45511942
Li       5.80864715      19.70214827      27.17790570        1       0.00227721       0.00188093       0.11296324       0.00002406       0.00001210       0.00002486      -0.00000080       0.00000021      -0.00000063      -0.04983191
Li       1.92618123      16.75579410      25.28297591        1       0.00227750       0.00188093      -0.11296325       0.00002406       0.00001210       0.00002486       0.00000080      -0.00000021      -0.00000063      -0.04983191
Li       7.80996280      16.90141208      24.06361052        0      -0.68554813      -2.08144693       0.10005028       0.00004638       0.00024282       0.00000889      -0.00000378      -0.00000157       0.00006278      -0.45511935
Li       3.80733150      17.06940498      24.06361052        0       0.63408220      -2.04222181       0.09910573       0.00004650       0.00024101       0.00000909      -0.00000327       0.00000169      -0.00006128      -0.41988434
Li       3.92749610      13.95505794      19.74650053        0      -0.68554818      -2.08144702      -0.10005042       0.00004638       0.00024282       0.00000889       0.00000378       0.00000157       0.00006278      -0.45511942
Li       5.80864715      19.70214827      22.85252043        1       0.00227721       0.00188093       0.11296324       0.00002406       0.00001210       0.00002486      -0.00000080       0.00000021      -0.00000063      -0.04983191
Li       1.92618123      16.75579410      20.95759063        1       0.00227750       0.00188093      -0.11296325       0.00002406       0.00001210       0.00002486       0.00000080      -0.00000021      -0.00000063      -0.04983191
Li       7.80996280      16.90141208      19.73822525        0      -0.68554813      -2.08144693       0.10005028       0.00004638       0.00024282       0.00000889      -0.00000378      -0.00000157       0.00006278      -0.45511935
Li       3.80733150      17.06940498      19.73822525        0       0.63408220      -2.04222181       0.09910573       0.00004650       0.00024101       0.00000909      -0.00000327       0.00000169      -0.00006128      -0.41988434
Li       3.92749610      13.95505794      15.42111525        0      -0.68554818      -2.08144702      -0.10005042       0.00004638       0.00024282       0.00000889       0.00000378       0.00000157       0.00006278      -0.45511942
Li       5.80864715      19.70214827      18.52713515        1       0.00227721       0.00188093       0.11296324       0.00002406       0.00001210       0.00002486      -0.00000080       0.00000021      -0.00000063      -0.04983191
Li       1.92618123      16.75579410      16.63220535        1       0.00227750       0.00188093      -0.11296325       0.00002406       0.00001210       0.00002486       0.00000080      -0.00000021      -0.00000063      -0.04983191
Li       7.80996280      16.90141208      15.41283997        0      -0.68554813      -2.08144693       0.10005028       0.00004638       0.00024282       0.00000889      -0.00000378      -0.00000157       0.00006278      -0.45511935
Li       3.80733150      17.06940498      15.41283997        0       0.63408220      -2.04222181       0.09910573       0.00004650       0.00024101       0.00000909      -0.00000327       0.00000169      -0.00006128      -0.41988434
Li       3.86917168      13.76359853      11.09161481        0       0.13379702       0.03488615      -0.12382896       0.00002371       0.00001554       0.00002024      -0.00000173      -0.00001412       0.00000153      -0.05393749
Li       5.80864715      19.70214827      14.20174987        1       0.00227721       0.00187735       0.11295720       0.00002406       0.00001211       0.00002487      -0.00000080       0.00000021      -0.00000063      -0.04983314
Li       1.92618123      16.75580318      12.30690115        1      -0.00375668       0.00310192       0.01534218       0.00000885       0.00000911       0.00000957      -0.00000109       0.00000033      -0.00000020      -0.02012409
Li       7.75163837      22.92855999      45.69465208        0      -0.02973452       0.07066972       0.05383491       0.00001147       0.00001927       0.00001464       0.00000624      -0.00000440      -0.00000338      -0.03766778
Li       3.86565593      23.09165706      45.69465208        0      -0.06303719      -0.05907628       0.20415994       0.00001002       0.00001867       0.00003424      -0.00000939      -0.00000496       0.00000256      -0.06087791
Li       7.68979819      20.01575912      41.37342693        0       0.63408219      -2.04222172      -0.09910560       0.00004650       0.00024101       0.00000909       0.00000327      -0.00000169      -0.00006128      -0.41988427
Li       3.92749610      20.17366526      41.37342693        0      -0.68554818      -2.08144702      -0.10005042       0.00004638       0.00024282       0.00000889       0.00000378       0.00000157       0.00006278      -0.45511942
Li       5.80864715      25.92076467      44.47936574        1      -0.00375677       0.00310192      -0.01534217       0.00000885       0.00000911       0.00000957       0.00000109      -0.00000033      -0.00000020      -0.02012409
Li       7.80996280      23.12001940      41.36515164        0      -0.68554813      -2.08144693       0.10005028       0.00004638       0.00024282       0.00000889      -0.00000378      -0.00000157       0.00006278      -0.45511935
Li       3.80733150      23.28801230      41.36515164        0       0.63408220      -2.04222181       0.09910573       0.00004650       0.00024101       0.00000909      -0.00000327       0.00000169      -0.00006128      -0.41988434
Li       7.68979819      20.01575912      37.04804165        0       0.63408219      -2.04222172      -0.09910560       0.00004650       0.00024101       0.00000909       0.00000327      -0.00000169      -0.00006128      -0.41988427
Li       3.92749610      20.17366526      37.04804165        0      -0.68554818      -2.08144702      -0.10005042       0.00004638       0.00024282       0.00000889       0.00000378       0.00000157       0.00006278      -0.45511942
Li       5.80864715      25.92075558      40.15406154        1       0.00227721       0.00188093       0.11296324       0.00002406       0.00001210       0.00002486      -0.00000080       0.00000021      -0.00000063      -0.04983191
Li       7.80996280      23.12001940      37.03976636        0      -0.68554813      -2.08144693       0.10005028       0.00004638       0.00024282       0.00000889      -0.00000378      -0.00000157       0.00006278      -0.45511935
Li       3.80733150      23.28801230      37.03976636        0       0.63408220      -2.04222181       0.09910573       0.00004650       0.00024101       0.00000909      -0.00000327       0.00000169      -0.00006128      -0.41988434
Li       7.68979819      20.01575912      32.72265637        0       0.63408219      -2.04222172      -0.09910560       0.00004650       0.00024101       0.00000909       0.00000327      -0.00000169      -0.00006128      -0.41988427
Li       3.92749610      20.17366526      32.72265637        0      -0.68554818      -2.08144702      -0.10005042       0.00004638       0.00024282       0.00000889       0.00000378       0.00000157       0.00006278      -0.45511942
Li       5.80864715      25.92075558      35.82867626        1       0.00227721       0.00188093       0.11296324       0.00002406       0.00001210       0.00002486      -0.00000080       0.00000021      -0.00000063      -0.04983191
Li       7.80996280      23.12001940      32.71438108        0      -0.68554813      -2.08144693       0.10005028       0.00004638       0.00024282       0.00000889      -0.00000378      -0.00000157       0.00006278      -0.45511935
Li       3.80733150      23.28801230      32.71438108        0       0.63408220      -2.04222181       0.09910573       0.00004650       0.00024101       0.00000909      -0.00000327       0.00000169      -0.00006128      -0.41988434
Li       7.68979819      20.01575912      28.39727109        0       0.63408219      -2.04222172      -0.09910560       0.00004650       0.00024101       0.00000909       0.00000327      -0.00000169      -0.00006128      -0.41988427
Li       3.92749610      20.17366526      28.39727109        0      -0.68554818      -2.08144702      -0.10005042       0.00004638       0.00024282       0.00000889       0.00000378       0.00000157       0.00006278      -0.45511942
Li       5.80864715      25.92075558      31.50329098        1       0.00227721       0.00188093       0.11296324       0.00002406       0.00001210       0.00002486      -0.00000080       0.00000021      -0.00000063      -0.04983191
Li       7.80996280      23.12001940      28.38899580        0      -0.68554813      -2.08144693       0.10005028       0.00004638       0.00024282       0.00000889      -0.00000378      -0.00000157       0.00006278      -0.45511935
Li       3.80733150      23.28801230      28.38899580        0       0.63408220      -2.04222181       0.09910573       0.00004650       0.00024101       0.00000909      -0.00000327       0.00000169      -0.00006128      -0.41988434
Li       7.68979819      20.01575912      24.07188581        0       0.63408219      -2.04222172      -0.09910560       0.00004650       0.00024101       0.00000909       0.00000327      -0.00000169      -0.00006128      -0.41988427
Li       3.92749610      20.17366526      24.07188581        0      -0.68554818      -2.08144702      -0.10005042       0.00004638       0.00024282       0.00000889       0.00000378       0.00000157       0.00006278      -0.45511942
Li       5.80864715      25.92075558      27.17790570        1       0.00227721       0.00188093       0.11296324       0.00002406       0.00001210       0.00002486      -0.00000080       0.00000021      -0.00000063      -0.04983191
Li       7.80996280      23.12001940      24.06361052        0      -0.68554813      -2.08144693       0.10005028       0.00004638       0.00024282       0.00000889      -0.00000378      -0.00000157       0.00006278      -0.45511935
Li       3.80733150      23.28801230      24.06361052        0       0.63408220      -2.04222181       0.09910573       0.00004650       0.00024101       0.00000909      -0.00000327       0.00000169      -0.00006128      -0.41988434
Li       7.68979819      20.01575912      19.74650053        0       0.63408219      -2.04222172      -0.09910560       0.00004650       0.00024101       0.00000909       0.00000327      -0.00000169      -0.00006128      -0.41988427
Li       3.92749610      20.17366526      19.74650053        0      -0.68554818      -2.08144702      -0.10005042       0.00004638       0.00024282       0.00000889       0.00000378       0.00000157       0.00006278      -0.45511942
Li       5.80864715      25.92075558      22.85252043        1       0.00227721       0.00188093       0.11296324       0.00002406       0.00001210       0.00002486      -0.00000080       0.00000021      -0.00000063      -0.04983191
Li       7.80996280      23.12001940      19.73822525        0      -0.68554813      -2.08144693       0.10005028       0.00004638       0.00024282       0.00000889      -0.00000378      -0.00000157       0.00006278      -0.45511935
Li       3.80733150      23.28801230      19.73822525        0       0.63408220      -2.04222181       0.09910573       0.00004650       0.00024101       0.00000909      -0.00000327       0.00000169      -0.00006128      -0.41988434
Li       7.68979819      20.01575912      15.42111525        0       0.63408219      -2.04222172      -0.09910560       0.00004650       0.00024101       0.00000909       0.00000327      -0.00000169      -0.00006128      -0.41988427
Li       3.92749610      20.17366526      15.42111525        0      -0.68554818      -2.08144702      -0.10005042       0.00004638       0.00024282       0.00000889       0.00000378       0.00000157       0.00006278      -0.45511942
Li       5.80864715      25.92075558      18.52713515        1       0.00227721       0.00188093       0.11296324       0.00002406       0.00001210       0.00002486      -0.00000080       0.00000021      -0.00000063      -0.04983191
Li       7.80996280      23.12001940      15.41283997        0      -0.68554813      -2.08144693       0.10005028       0.00004638       0.00024282       0.00000889      -0.00000378      -0.00000157       0.00006278      -0.45511935
Li       3.80733150      23.28801230      15.41283997        0       0.63408220      -2.04222181       0.09910573       0.00004650       0.00024101       0.00000909      -0.00000327       0.00000169      -0.00006128      -0.41988434
Li       7.74812262      19.81940389      11.09161481        0      -0.06512234      -0.03845355      -0.04973364       0.00001181       0.00002338       0.00001232       0.00000514       0.00000432       0.00000316      -0.04011073
Li       3.86917168      19.98220585      11.09161481        0      -0.13095657       0.06547637      -0.14644593       0.00002394       0.00001558       0.00002267      -0.00000502       0.00001441      -0.00000076      -0.05714844
Li       5.80864715      25.92075558      14.20174987        1       0.00227721       0.00187735       0.11295720       0.00002406       0.00001211       0.00002487      -0.00000080       0.00000021      -0.00000063      -0.04983314
Li       7.75163837      29.14716730      45.69465208        0       0.06391760       0.00253700       0.05689410       0.00001239       0.00001660       0.00001504      -0.00000260       0.00000774      -0.00000304      -0.03891622
Li       7.68979819      26.23436644      41.37342693        0       0.63408219      -2.04222172      -0.09910560       0.00004650       0.00024101       0.00000909       0.00000327      -0.00000169      -0.00006128      -0.41988427
Li       7.80996280      29.33862671      41.36515164        0      -0.68554813      -2.08144693       0.10005028       0.00004638       0.00024282       0.00000889      -0.00000378      -0.00000157       0.00006278      -0.45511935
Li       7.68979819      26.23436644      37.04804165        0       0.63408219      -2.04222172      -0.09910560       0.00004650       0.00024101       0.00000909       0.00000327      -0.00000169      -0.00006128      -0.41988427
Li       7.80996280      29.33862671      37.03976636        0      -0.68554813      -2.08144693       0.10005028       0.00004638       0.00024282       0.00000889      -0.00000378      -0.00000157       0.00006278      -0.45511935