504
Lattice="-4.166030694342068e-16 18.6558219398172 0.0 7.764933388889874 18.32992290740971 0.0 0.0 0.0 45.77182202407539" Properties=species:S:1:pos:R:3:spacegroup_kinds:I:1:forces:R:3:stresses:R:6:energies:R:1 spacegroup="P m n 21" unit_cell=conventional occupancy="_JSON {\"0\": {\"Li\": 1.0}, \"1\": {\"Li\": 1.0}, \"2\": {\"P\": 1.0}, \"3\": {\"S\": 0.97}, \"4\": {\"S\": 0.98}, \"5\": {\"S\": 0.99}}" energy=-109.12240306521764 stress="0.016948498811422054 -0.0002226575239618723 1.4678033241883849e-05 -0.0002226575239618723 0.04835430443091182 6.790989987392944e-05 1.4678033241883849e-05 6.790989987392944e-05 0.022540314483036356" free_energy=-109.12240306521764 pbc="T T T"
Li       1.21923583       4.23751478      42.03668697        1       0.00227750       0.00187734      -0.11295720       0.00002448       0.00001232       0.00002530       0.00000081      -0.00000022      -0.00000064      -0.04983314
Li       1.21923583       4.23751478      37.71130169        1       0.00227750       0.00188093      -0.11296325       0.00002448       0.00001232       0.00002530       0.00000081      -0.00000022      -0.00000064      -0.04983191
Li       1.21923583       4.23751478      33.38591641        1       0.00227750       0.00188093      -0.11296325       0.00002448       0.00001232       0.00002530       0.00000081      -0.00000022      -0.00000064      -0.04983191
Li       1.21923583       4.23751478      29.06053113        1       0.00227750       0.00188093      -0.11296325       0.00002448       0.00001232       0.00002530       0.00000081      -0.00000022      -0.00000064      -0.04983191
Li       1.21923583       4.23751478      24.73514585        1       0.00227750       0.00188093      -0.11296325       0.00002448       0.00001232       0.00002530       0.00000081      -0.00000022      -0.00000064      -0.04983191
Li       1.21923583       4.23751478      20.40976057        1       0.00227750       0.00188093      -0.11296325       0.00002448       0.00001232       0.00002530       0.00000081      -0.00000022      -0.00000064      -0.04983191
Li       1.21923583       4.23751478      16.08437529        1       0.00227750       0.00188093      -0.11296325       0.00002448       0.00001232       0.00002530       0.00000081      -0.00000022      -0.00000064      -0.04983191
Li       1.21923583       4.23752387      11.75907110        1       0.00763767       0.00613778      -0.00900168       0.00000996       0.00000934       0.00001409      -0.00000165      -0.00000170       0.00000005      -0.02334180
Li       3.15871053      10.57337775      45.14682202        0      -0.23541422      -0.07697933       0.23753670       0.00003415       0.00002031       0.00002892      -0.00000776      -0.00001981       0.00001276      -0.08037394
Li       3.22055070       7.65538594      40.82559687        0      -0.68554818      -2.08144702      -0.10005042       0.00004718       0.00024705       0.00000904       0.00000384       0.00000160       0.00006388      -0.45511942
Li       5.10170175      13.40248535      43.93153568        1      -0.00841591       0.00781476      -0.00539580       0.00000941       0.00000968       0.00001159       0.00000199      -0.00000121      -0.00000061      -0.02033926
Li       1.21923583      10.45612210      42.03668697        1       0.00227750       0.00187734      -0.11295720       0.00002448       0.00001232       0.00002530       0.00000081      -0.00000022      -0.00000064      -0.04983314
Li       3.10038610      10.76973298      40.81732158        0       0.63408220      -2.04222181       0.09910573       0.00004731       0.00024521       0.00000925      -0.00000333       0.00000172      -0.00006235      -0.41988434
Li       3.22055070       7.65538594      36.50021159        0      -0.68554818      -2.08144702      -0.10005042       0.00004718       0.00024705       0.00000904       0.00000384       0.00000160       0.00006388      -0.45511942
Li       5.10170175      13.40247627      39.60623148        1       0.00227721       0.00188093       0.11296324       0.00002448       0.00001232       0.00002530      -0.00000081       0.00000022      -0.00000064      -0.04983191
Li       1.21923583      10.45612210      37.71130169        1       0.00227750       0.00188093      -0.11296325       0.00002448       0.00001232       0.00002530       0.00000081      -0.00000022      -0.00000064      -0.04983191
Li       3.10038610      10.76973298      36.49193630        0       0.63408220      -2.04222181       0.09910573       0.00004731       0.00024521       0.00000925      -0.00000333       0.00000172      -0.00006235      -0.41988434
Li       3.22055070       7.65538594      32.17482631        0      -0.68554818      -2.08144702      -0.10005042       0.00004718       0.00024705       0.00000904       0.00000384       0.00000160       0.00006388      -0.45511942
Li       5.10170175      13.40247627      35.28084621        1       0.00227721       0.00188093       0.11296324       0.00002448       0.00001232       0.00002530      -0.00000081       0.00000022      -0.00000064      -0.04983191
Li       1.21923583      10.45612210      33.38591641        1       0.00227750       0.00188093      -0.11296325       0.00002448       0.00001232       0.00002530       0.00000081      -0.00000022      -0.00000064      -0.04983191
Li       3.10038610      10.76973298      32.16655103        0       0.63408220      -2.04222181       0.09910573       0.00004731       0.00024521       0.00000925      -0.00000333       0.00000172      -0.00006235      -0.41988434
Li       3.22055070       7.65538594      27.84944103        0      -0.68554818      -2.08144702      -0.10005042       0.00004718       0.00024705       0.00000904       0.00000384       0.00000160       0.00006388      -0.45511942
Li       5.10170175      13.40247627      30.95546093        1       0.00227721       0.00188093       0.11296324       0.00002448       0.00001232       0.00002530      -0.00000081       0.00000022      -0.00000064      -0.04983191
Li       1.21923583      10.45612210      29.06053113        1       0.00227750       0.00188093      -0.11296325       0.00002448       0.00001232       0.00002530       0.00000081      -0.00000022      -0.00000064      -0.04983191
Li       3.10038610      10.76973298      27.84116575        0       0.63408220      -2.04222181       0.09910573       0.00004731       0.00024521       0.00000925      -0.00000333       0.00000172      -0.00006235      -0.41988434
Li       3.22055070       7.65538594      23.52405575        0      -0.68554818      -2.08144702      -0.10005042       0.00004718       0.00024705       0.00000904       0.00000384       0.00000160       0.00006388      -0.45511942
Li       5.10170175      13.40247627      26.63007565        1       0.00227721       0.00188093       0.11296324       0.00002448       0.00001232       0.00002530      -0.00000081       0.00000022      -0.00000064      -0.04983191
Li       1.21923583      10.45612210      24.73514585        1       0.00227750       0.00188093      -0.11296325       0.00002448       0.00001232       0.00002530       0.00000081      -0.00000022      -0.00000064      -0.04983191
Li       3.10038610      10.76973298      23.51578047        0       0.63408220      -2.04222181       0.09910573       0.00004731       0.00024521       0.00000925      -0.00000333       0.00000172      -0.00006235      -0.41988434
Li       3.22055070       7.65538594      19.19867047        0      -0.68554818      -2.08144702      -0.10005042       0.00004718       0.00024705       0.00000904       0.00000384       0.00000160       0.00006388      -0.45511942
Li       5.10170175      13.40247627      22.30469037        1       0.00227721       0.00188093       0.11296324       0.00002448       0.00001232       0.00002530      -0.00000081       0.00000022      -0.00000064      -0.04983191
Li       1.21923583      10.45612210      20.40976057        1       0.00227750       0.00188093      -0.11296325       0.00002448       0.00001232       0.00002530       0.00000081      -0.00000022      -0.00000064      -0.04983191
Li       3.10038610      10.76973298      19.19039519        0       0.63408220      -2.04222181       0.09910573       0.00004731       0.00024521       0.00000925      -0.00000333       0.00000172      -0.00006235      -0.41988434
Li       3.22055070       7.65538594      14.87328519        0      -0.68554818      -2.08144702      -0.10005042       0.00004718       0.00024705       0.00000904       0.00000384       0.00000160       0.00006388      -0.45511942
Li       5.10170175      13.40247627      17.97930509        1       0.00227721       0.00188093       0.11296324       0.00002448       0.00001232       0.00002530      -0.00000081       0.00000022      -0.00000064      -0.04983191
Li       1.21923583      10.45612210      16.08437529        1       0.00227750       0.00188093      -0.11296325       0.00002448       0.00001232       0.00002530       0.00000081      -0.00000022      -0.00000064      -0.04983191
Li       3.10038610      10.76973298      14.86500991        0       0.63408220      -2.04222181       0.09910573       0.00004731       0.00024521       0.00000925      -0.00000333       0.00000172      -0.00006235      -0.41988434
Li       3.16222628       7.46392653      10.54378475        0       0.00383849       0.09258180      -0.03342671       0.00001803       0.00002120       0.00001061      -0.00000659      -0.00000035       0.00000321      -0.03894096
Li       5.10170175      13.40247627      13.65391981        1       0.00227721       0.00187735       0.11295720       0.00002448       0.00001232       0.00002530      -0.00000081       0.00000022      -0.00000064      -0.04983314
Li       1.21923583      10.45613118      11.75907110        1      -0.01250350       0.00549442       0.00131129       0.00000998       0.00000934       0.00001225      -0.00000154       0.00000190      -0.00000047      -0.02132312
Li       7.04469297      16.62888799      45.14682202        0       0.16823135      -0.68920995       1.39187335       0.00001024       0.00005000       0.00013767      -0.00006641       0.00001572      -0.00000777      -0.24008006
Li       3.15871053      16.79198506      45.14682202        0      -0.22000119       0.39162435       0.47834543       0.00001755       0.00004471       0.00005162       0.00003641      -0.00001836      -0.00001507      -0.11740780
Li       3.22055070      13.87399326      40.82559687        0      -0.68554818      -2.08144702      -0.10005042       0.00004718       0.00024705       0.00000904       0.00000384       0.00000160       0.00006388      -0.45511942
Li       5.10170175      19.62109267      43.93153568        1       0.00444733      -0.00178043       0.01037594       0.00000949       0.00000944       0.00001452       0.00000020       0.00000119      -0.00000049      -0.02341428
Li       1.21923583      16.67472941      42.03668697        1       0.00227750       0.00187734      -0.11295720       0.00002448       0.00001232       0.00002530       0.00000081      -0.00000022      -0.00000064      -0.04983314
Li       7.10301740      16.82034740      40.81732158        0      -0.68554813      -2.08144693       0.10005028       0.00004718       0.00024705       0.00000904      -0.00000384      -0.00000160       0.00006388      -0.45511935
Li       3.10038610      16.98834030      40.81732158        0       0.63408220      -2.04222181       0.09910573       0.00004731       0.00024521       0.00000925      -0.00000333       0.00000172      -0.00006235      -0.41988434
Li       3.22055070      13.87399326      36.50021159        0      -0.68554818      -2.08144702      -0.10005042       0.00004718       0.00024705       0.00000904       0.00000384       0.00000160       0.00006388      -0.45511942
Li       5.10170175      19.62108358      39.60623148        1       0.00227721       0.00188093       0.11296324       0.00002448       0.00001232       0.00002530      -0.00000081       0.00000022      -0.00000064      -0.04983191
Li       1.21923583      16.67472941      37.71130169        1       0.00227750       0.00188093      -0.11296325       0.00002448       0.00001232       0.00002530       0.00000081      -0.00000022      -0.00000064      -0.04983191
Li       7.10301740      16.82034740      36.49193630        0      -0.68554813      -2.08144693       0.10005028       0.00004718       0.00024705       0.00000904      -0.00000384      -0.00000160       0.00006388      -0.45511935
Li       3.10038610      16.98834030      36.49193630        0       0.63408220      -2.04222181       0.09910573       0.00004731       0.00024521       0.00000925      -0.00000333       0.00000172      -0.00006235      -0.41988434
Li       3.22055070      13.87399326      32.17482631        0      -0.68554818      -2.08144702      -0.10005042       0.00004718       0.00024705       0.00000904       0.00000384       0.00000160       0.00006388      -0.45511942
Li       5.10170175      19.62108358      35.28084621        1       0.00227721       0.00188093       0.11296324       0.00002448       0.00001232       0.00002530      -0.00000081       0.00000022      -0.00000064      -0.04983191
Li       1.21923583      16.67472941      33.38591641        1       0.00227750       0.00188093      -0.11296325       0.00002448       0.00001232       0.00002530       0.00000081      -0.00000022      -0.00000064      -0.04983191
Li       7.10301740      16.82034740      32.16655103        0      -0.68554813      -2.08144693       0.10005028       0.00004718       0.00024705       0.00000904      -0.00000384      -0.00000160       0.00006388      -0.45511935
Li       3.10038610      16.98834030      32.16655103        0       0.63408220      -2.04222181       0.09910573       0.00004731       0.00024521       0.00000925      -0.00000333       0.00000172      -0.00006235      -0.41988434
Li       3.22055070      13.87399326      27.84944103        0      -0.68554818      -2.08144702      -0.10005042       0.00004718       0.00024705       0.00000904       0.00000384       0.00000160       0.00006388      -0.45511942
Li       5.10170175      19.62108358      30.95546093        1       0.00227721       0.00188093       0.11296324       0.00002448       0.00001232       0.00002530      -0.00000081       0.00000022      -0.00000064      -0.04983191
Li       1.21923583      16.67472941      29.06053113        1       0.00227750       0.00188093      -0.11296325       0.00002448       0.00001232       0.00002530       0.00000081      -0.00000022      -0.00000064      -0.04983191
Li       7.10301740      16.82034740      27.84116575        0      -0.68554813      -2.08144693       0.10005028       0.00004718       0.00024705       0.00000904      -0.00000384      -0.00000160       0.00006388      -0.45511935
Li       3.10038610      16.98834030      27.84116575        0       0.63408220      -2.04222181       0.09910573       0.00004731       0.00024521       0.00000925      -0.00000333       0.00000172      -0.00006235      -0.41988434
Li       3.22055070      13.87399326      23.52405575        0      -0.68554818      -2.08144702      -0.10005042       0.00004718       0.00024705       0.00000904       0.00000384       0.00000160       0.00006388      -0.45511942
Li       5.10170175      19.62108358      26.63007565        1       0.00227721       0.00188093       0.11296324       0.00002448       0.00001232       0.00002530      -0.00000081       0.00000022      -0.00000064      -0.04983191
Li       1.21923583      16.67472941      24.73514585        1       0.00227750       0.00188093      -0.11296325       0.00002448       0.00001232       0.00002530       0.00000081      -0.00000022      -0.00000064      -0.04983191
Li       7.10301740      16.82034740      23.51578047        0      -0.68554813      -2.08144693       0.10005028       0.00004718       0.00024705       0.00000904      -0.00000384      -0.00000160       0.00006388      -0.45511935
Li       3.10038610      16.98834030      23.51578047        0       0.63408220      -2.04222181       0.09910573       0.00004731       0.00024521       0.00000925      -0.00000333       0.00000172      -0.00006235      -0.41988434
Li       3.22055070      13.87399326      19.19867047        0      -0.68554818      -2.08144702      -0.10005042       0.00004718       0.00024705       0.00000904       0.00000384       0.00000160       0.00006388      -0.45511942
Li       5.10170175      19.62108358      22.30469037        1       0.00227721       0.00188093       0.11296324       0.00002448       0.00001232       0.00002530      -0.00000081       0.00000022      -0.00000064      -0.04983191
Li       1.21923583      16.67472941      20.40976057        1       0.00227750       0.00188093      -0.11296325       0.00002448       0.00001232       0.00002530       0.00000081      -0.00000022      -0.00000064      -0.04983191
Li       7.10301740      16.82034740      19.19039519        0      -0.68554813      -2.08144693       0.10005028       0.00004718       0.00024705       0.00000904      -0.00000384      -0.00000160       0.00006388      -0.45511935
Li       3.10038610      16.98834030      19.19039519        0       0.63408220      -2.04222181       0.09910573       0.00004731       0.00024521       0.00000925      -0.00000333       0.00000172      -0.00006235      -0.41988434
Li       3.22055070      13.87399326      14.87328519        0      -0.68554818      -2.08144702      -0.10005042       0.00004718       0.00024705       0.00000904       0.00000384       0.00000160       0.00006388      -0.45511942
Li       5.10170175      19.62108358      17.97930509        1       0.00227721       0.00188093       0.11296324       0.00002448       0.00001232       0.00002530      -0.00000081       0.00000022      -0.00000064      -0.04983191
Li       1.21923583      16.67472941      16.08437529        1       0.00227750       0.00188093      -0.11296325       0.00002448       0.00001232       0.00002530       0.00000081      -0.00000022      -0.00000064      -0.04983191
Li       7.10301740      16.82034740      14.86500991        0      -0.68554813      -2.08144693       0.10005028       0.00004718       0.00024705       0.00000904      -0.00000384      -0.00000160       0.00006388      -0.45511935
Li       3.10038610      16.98834030      14.86500991        0       0.63408220      -2.04222181       0.09910573       0.00004731       0.00024521       0.00000925      -0.00000333       0.00000172      -0.00006235      -0.41988434
Li       3.16222628      13.68253384      10.54378475        0      -0.04105401      -0.19359710      -0.19028635       0.00001113       0.00004478       0.00002282       0.00001803       0.00000363       0.00000096      -0.07492254
Li       5.10170175      19.62108358      13.65391981        1       0.00227721       0.00187735       0.11295720       0.00002448       0.00001232       0.00002530      -0.00000081       0.00000022      -0.00000064      -0.04983314
Li       1.21923583      16.67473849      11.75907110        1       0.00002016      -0.00694833      -0.00400695       0.00000914       0.00001020       0.00001320       0.00000069      -0.00000034      -0.00000055      -0.02239807
Li       7.04469297      22.84749530      45.14682202        0       0.22019042       0.29135552       0.33043911       0.00002474       0.00003195       0.00003762       0.00002602       0.00002062       0.00001545      -0.09361894
Li       3.15871053      23.01059237      45.14682202        0       0.09508825      -0.00681315       0.07517032       0.00002212       0.00002046       0.00001362      -0.00000115       0.00001134      -0.00000538      -0.04898516
Li       6.98285279      19.93469444      40.82559687        0       0.63408219      -2.04222172      -0.09910560       0.00004731       0.00024521       0.00000925       0.00000333      -0.00000172      -0.00006235      -0.41988427
Li       3.22055070      20.09260057      40.82559687        0      -0.68554818      -2.08144702      -0.10005042       0.00004718       0.00024705       0.00000904       0.00000384       0.00000160       0.00006388      -0.45511942
Li       5.10170175      25.83969998      43.93153568        1      -0.00375677       0.00310192      -0.01534217       0.00000901       0.00000927       0.00000974       0.00000111      -0.00000034      -0.00000020      -0.02012409
Li       7.10301740      23.03895471      40.81732158        0      -0.68554813      -2.08144693       0.10005028       0.00004718       0.00024705       0.00000904      -0.00000384      -0.00000160       0.00006388      -0.45511935
Li       3.10038610      23.20694761      40.81732158        0       0.63408220      -2.04222181       0.09910573       0.00004731       0.00024521       0.00000925      -0.00000333       0.00000172      -0.00006235      -0.41988434
Li       6.98285279      19.93469444      36.50021159        0       0.63408219      -2.04222172      -0.09910560       0.00004731       0.00024521       0.00000925       0.00000333      -0.00000172      -0.00006235      -0.41988427
Li       3.22055070      20.09260057      36.50021159        0      -0.68554818      -2.08144702      -0.10005042       0.00004718       0.00024705       0.00000904       0.00000384       0.00000160       0.00006388      -0.45511942
Li       5.10170175      25.83969090      39.60623148        1       0.00227721       0.00188093       0.11296324       0.00002448       0.00001232       0.00002530      -0.00000081       0.00000022      -0.00000064      -0.04983191
Li       7.10301740      23.03895471      36.49193630        0      -0.68554813      -2.08144693       0.10005028       0.00004718       0.00024705       0.00000904      -0.00000384      -0.00000160       0.00006388      -0.45511935
Li       3.10038610      23.20694761      36.49193630        0       0.63408220      -2.04222181       0.09910573       0.00004731       0.00024521       0.00000925      -0.00000333       0.00000172      -0.00006235      -0.41988434
Li       6.98285279      19.93469444      32.17482631        0       0.63408219      -2.04222172      -0.09910560       0.00004731       0.00024521       0.00000925       0.00000333      -0.00000172      -0.00006235      -0.41988427
Li       3.22055070      20.09260057      32.17482631        0      -0.68554818      -2.08144702      -0.10005042       0.00004718       0.00024705       0.00000904       0.00000384       0.00000160       0.00006388      -0.45511942
Li       5.10170175      25.83969090      35.28084621        1       0.00227721       0.00188093       0.11296324       0.00002448       0.00001232       0.00002530      -0.00000081       0.00000022      -0.00000064      -0.04983191
Li       7.10301740      23.03895471      32.16655103        0      -0.68554813      -2.08144693       0.10005028       0.00004718       0.00024705       0.00000904      -0.00000384      -0.00000160       0.00006388      -0.45511935
Li       3.10038610      23.20694761      32.16655103        0       0.63408220      -2.04222181       0.09910573       0.00004731       0.00024521       0.00000925      -0.00000333       0.00000172      -0.00006235      -0.41988434
Li       6.98285279      19.93469444      27.84944103        0       0.63408219      -2.04222172      -0.09910560       0.00004731       0.00024521       0.00000925       0.00000333      -0.00000172      -0.00006235      -0.41988427
Li       3.22055070      20.09260057      27.84944103        0      -0.68554818      -2.08144702      -0.10005042       0.00004718       0.00024705       0.00000904       0.00000384       0.00000160       0.00006388      -0.45511942
Li       5.10170175      25.83969090      30.95546093        1       0.00227721       0.00188093       0.11296324       0.00002448       0.00001232       0.00002530      -0.00000081       0.00000022      -0.00000064      -0.04983191
Li       7.10301740      23.03895471      27.84116575        0      -0.68554813      -2.08144693       0.10005028       0.00004718       0.00024705       0.00000904      -0.00000384      -0.00000160       0.00006388      -0.45511935
Li       3.10038610      23.20694761      27.84116575        0       0.63408220      -2.04222181       0.09910573       0.00004731       0.00024521       0.00000925      -0.00000333       0.00000172      -0.00006235      -0.41988434
Li       6.98285279      19.93469444      23.52405575        0       0.63408219      -2.04222172      -0.09910560       0.00004731       0.00024521       0.00000925       0.00000333      -0.00000172      -0.00006235      -0.41988427
Li       3.22055070      20.09260057      23.52405575        0      -0.68554818      -2.08144702      -0.10005042       0.00004718       0.00024705       0.00000904       0.00000384       0.00000160       0.00006388      -0.45511942
Li       5.10170175      25.83969090      26.63007565        1       0.00227721       0.00188093       0.11296324       0.00002448       0.00001232       0.00002530      -0.00000081       0.00000022      -0.00000064      -0.04983191
Li       7.10301740      23.03895471      23.51578047        0      -0.68554813      -2.08144693       0.10005028       0.00004718       0.00024705       0.00000904      -0.00000384      -0.00000160       0.00006388      -0.45511935
Li       3.10038610      23.20694761      23.51578047        0       0.63408220      -2.04222181       0.09910573       0.00004731       0.00024521       0.00000925      -0.00000333       0.00000172      -0.00006235      -0.41988434
Li       6.98285279      19.93469444      19.19867047        0       0.63408219      -2.04222172      -0.09910560       0.00004731       0.00024521       0.00000925       0.00000333      -0.00000172      -0.00006235      -0.41988427
Li       3.22055070      20.09260057      19.19867047        0      -0.68554818      -2.08144702      -0.10005042       0.00004718       0.00024705       0.00000904       0.00000384       0.00000160       0.00006388      -0.45511942
Li       5.10170175      25.83969090      22.30469037        1       0.00227721       0.00188093       0.11296324       0.00002448       0.00001232       0.00002530      -0.00000081       0.00000022      -0.00000064      -0.04983191
Li       7.10301740      23.03895471      19.19039519        0      -0.68554813      -2.08144693       0.10005028       0.00004718       0.00024705       0.00000904      -0.00000384      -0.00000160       0.00006388      -0.45511935
Li       3.10038610      23.20694761      19.19039519        0       0.63408220      -2.04222181       0.09910573       0.00004731       0.00024521       0.00000925      -0.00000333       0.00000172      -0.00006235      -0.41988434
Li       6.98285279      19.93469444      14.87328519        0       0.63408219      -2.04222172      -0.09910560       0.00004731       0.00024521       0.00000925       0.00000333      -0.00000172      -0.00006235      -0.41988427
Li       3.22055070      20.09260057      14.87328519        0      -0.68554818      -2.08144702      -0.10005042       0.00004718       0.00024705       0.00000904       0.00000384       0.00000160       0.00006388      -0.45511942
Li       5.10170175      25.83969090      17.97930509        1       0.00227721       0.00188093       0.11296324       0.00002448       0.00001232       0.00002530      -0.00000081       0.00000022      -0.00000064      -0.04983191
Li       7.10301740      23.03895471      14.86500991        0      -0.68554813      -2.08144693       0.10005028       0.00004718       0.00024705       0.00000904      -0.00000384      -0.00000160       0.00006388      -0.45511935
Li       3.10038610      23.20694761      14.86500991        0       0.63408220      -2.04222181       0.09910573       0.00004731       0.00024521       0.00000925      -0.00000333       0.00000172      -0.00006235      -0.41988434
Li       7.04117722      19.73833920      10.54378475        0       0.01723904       0.08164690      -0.10034803       0.00001403       0.00003735       0.00001502      -0.00000685      -0.00000371      -0.00000693      -0.06035603
Li       3.16222628      19.90114116      10.54378475        0       0.89550729       0.27909229      -2.18963558       0.00003936       0.00001704       0.00019875      -0.00002325      -0.00007828       0.00000809      -0.40467550
Li       5.10170175      25.83969090      13.65391981        1       0.00227721       0.00187735       0.11295720       0.00002448       0.00001232       0.00002530      -0.00000081       0.00000022      -0.00000064      -0.04983314
Li       7.04469297      29.06610261      45.14682202        0      -0.03318193       0.03286102       0.00761370       0.00001398       0.00002104       0.00000719       0.00000165      -0.00000326      -0.00000193      -0.03319091
Li       6.98285279      26.15330175      40.82559687        0       0.63408219      -2.04222172      -0.09910560       0.00004731       0.00024521       0.00000925       0.00000333      -0.00000172      -0.00006235      -0.41988427
Li       7.10301740      29.25756202      40.81732158        0      -0.68554813      -2.08144693       0.10005028       0.00004718       0.00024705       0.00000904      -0.00000384      -0.00000160       0.00006388      -0.45511935
Li       6.98285279      26.15330175      36.50021159        0       0.63408219      -2.04222172      -0.09910560       0.00004731       0.00024521       0.00000925       0.00000333      -0.00000172      -0.00006235      -0.41988427
Li       7.10301740      29.25756202      36.49193630        0      -0.68554813      -2.08144693       0.10005028       0.00004718       0.00024705       0.00000904      -0.00000384      -0.00000160       0.00006388      -0.45511935