504
Lattice="-4.166030694342068e-16 18.6558219398172 0.0 7.764933388889874 18.32992290740971 0.0 0.0 0.0 47.22407768422561" Properties=species:S:1:pos:R:3:spacegroup_kinds:I:1:forces:R:3:stresses:R:6:energies:R:1 spacegroup="P m n 21" unit_cell=conventional occupancy="_JSON {\"0\": {\"Li\": 1.0}, \"1\": {\"Li\": 1.0}, \"2\": {\"P\": 1.0}, \"3\": {\"S\": 0.97}, \"4\": {\"S\": 0.98}, \"5\": {\"S\": 0.99}}" energy=-104.84027444552797 stress="0.01579918754478474 -0.00020064045512763865 2.5415250804478014e-06 -0.00020064045512763865 0.046262575408029305 -3.898666967533561e-06 2.5415250804478014e-06 -3.898666967533561e-06 0.019798436597387288" free_energy=-104.84027444552797 pbc="T T T"
Li       1.85304188       4.13978204      43.11394263        1       0.00227750       0.00187734      -0.11295720       0.00002373       0.00001194       0.00002452       0.00000079      -0.00000021      -0.00000062      -0.04983314
Li       1.85304188       4.13978204      38.78855735        1       0.00227750       0.00188093      -0.11296325       0.00002373       0.00001194       0.00002452       0.00000079      -0.00000021      -0.00000062      -0.04983191
Li       1.85304188       4.13978204      34.46317207        1       0.00227750       0.00188093      -0.11296325       0.00002373       0.00001194       0.00002452       0.00000079      -0.00000021      -0.00000062      -0.04983191
Li       1.85304188       4.13978204      30.13778679        1       0.00227750       0.00188093      -0.11296325       0.00002373       0.00001194       0.00002452       0.00000079      -0.00000021      -0.00000062      -0.04983191
Li       1.85304188       4.13978204      25.81240151        1       0.00227750       0.00188093      -0.11296325       0.00002373       0.00001194       0.00002452       0.00000079      -0.00000021      -0.00000062      -0.04983191
Li       1.85304188       4.13978204      21.48701623        1       0.00227750       0.00188093      -0.11296325       0.00002373       0.00001194       0.00002452       0.00000079      -0.00000021      -0.00000062      -0.04983191
Li       1.85304188       4.13978204      17.16163095        1       0.00227750       0.00188093      -0.11296325       0.00002373       0.00001194       0.00002452       0.00000079      -0.00000021      -0.00000062      -0.04983191
Li       1.85304187       4.13979112      12.83632676        1      -0.00375668       0.00310192       0.01534218       0.00000873       0.00000898       0.00000944      -0.00000108       0.00000033      -0.00000020      -0.02012409
Li       3.79251657      10.47564500      46.22407768        0      -0.01196731       0.05870853       0.00565709       0.00000955       0.00001615       0.00000914       0.00000627       0.00000186       0.00000165      -0.02896427
Li       3.85435675       7.55765320      41.90285253        0      -0.68554818      -2.08144702      -0.10005042       0.00004573       0.00023945       0.00000876       0.00000373       0.00000155       0.00006191      -0.45511942
Li       5.73550779      13.30475260      45.00879134        1      -0.00375677       0.00310192      -0.01534217       0.00000873       0.00000898       0.00000944       0.00000108      -0.00000033      -0.00000020      -0.02012409
Li       1.85304188      10.35838935      43.11394263        1       0.00227750       0.00187734      -0.11295720       0.00002373       0.00001194       0.00002452       0.00000079      -0.00000021      -0.00000062      -0.04983314
Li       3.73419214      10.67200023      41.89457724        0       0.63408220      -2.04222181       0.09910573       0.00004586       0.00023767       0.00000896      -0.00000322       0.00000167      -0.00006043      -0.41988434
Li       3.85435675       7.55765320      37.57746725        0      -0.68554818      -2.08144702      -0.10005042       0.00004573       0.00023945       0.00000876       0.00000373       0.00000155       0.00006191      -0.45511942
Li       5.73550779      13.30474352      40.68348714        1       0.00227721       0.00188093       0.11296324       0.00002373       0.00001194       0.00002452      -0.00000079       0.00000021      -0.00000062      -0.04983191
Li       1.85304188      10.35838935      38.78855735        1       0.00227750       0.00188093      -0.11296325       0.00002373       0.00001194       0.00002452       0.00000079      -0.00000021      -0.00000062      -0.04983191
Li       3.73419214      10.67200023      37.56919197        0       0.63408220      -2.04222181       0.09910573       0.00004586       0.00023767       0.00000896      -0.00000322       0.00000167      -0.00006043      -0.41988434
Li       3.85435675       7.55765320      33.25208197        0      -0.68554818      -2.08144702      -0.10005042       0.00004573       0.00023945       0.00000876       0.00000373       0.00000155       0.00006191      -0.45511942
Li       5.73550779      13.30474352      36.35810187        1       0.00227721       0.00188093       0.11296324       0.00002373       0.00001194       0.00002452      -0.00000079       0.00000021      -0.00000062      -0.04983191
Li       1.85304188      10.35838935      34.46317207        1       0.00227750       0.00188093      -0.11296325       0.00002373       0.00001194       0.00002452       0.00000079      -0.00000021      -0.00000062      -0.04983191
Li       3.73419214      10.67200023      33.24380669        0       0.63408220      -2.04222181       0.09910573       0.00004586       0.00023767       0.00000896      -0.00000322       0.00000167      -0.00006043      -0.41988434
Li       3.85435675       7.55765320      28.92669669        0      -0.68554818      -2.08144702      -0.10005042       0.00004573       0.00023945       0.00000876       0.00000373       0.00000155       0.00006191      -0.45511942
Li       5.73550779      13.30474352      32.03271659        1       0.00227721       0.00188093       0.11296324       0.00002373       0.00001194       0.00002452      -0.00000079       0.00000021      -0.00000062      -0.04983191
Li       1.85304188      10.35838935      30.13778679        1       0.00227750       0.00188093      -0.11296325       0.00002373       0.00001194       0.00002452       0.00000079      -0.00000021      -0.00000062      -0.04983191
Li       3.73419214      10.67200023      28.91842141        0       0.63408220      -2.04222181       0.09910573       0.00004586       0.00023767       0.00000896      -0.00000322       0.00000167      -0.00006043      -0.41988434
Li       3.85435675       7.55765320      24.60131141        0      -0.68554818      -2.08144702      -0.10005042       0.00004573       0.00023945       0.00000876       0.00000373       0.00000155       0.00006191      -0.45511942
Li       5.73550779      13.30474352      27.70733131        1       0.00227721       0.00188093       0.11296324       0.00002373       0.00001194       0.00002452      -0.00000079       0.00000021      -0.00000062      -0.04983191
Li       1.85304188      10.35838935      25.81240151        1       0.00227750       0.00188093      -0.11296325       0.00002373       0.00001194       0.00002452       0.00000079      -0.00000021      -0.00000062      -0.04983191
Li       3.73419214      10.67200023      24.59303613        0       0.63408220      -2.04222181       0.09910573       0.00004586       0.00023767       0.00000896      -0.00000322       0.00000167      -0.00006043      -0.41988434
Li       3.85435675       7.55765320      20.27592613        0      -0.68554818      -2.08144702      -0.10005042       0.00004573       0.00023945       0.00000876       0.00000373       0.00000155       0.00006191      -0.45511942
Li       5.73550779      13.30474352      23.38194603        1       0.00227721       0.00188093       0.11296324       0.00002373       0.00001194       0.00002452      -0.00000079       0.00000021      -0.00000062      -0.04983191
Li       1.85304188      10.35838935      21.48701623        1       0.00227750       0.00188093      -0.11296325       0.00002373       0.00001194       0.00002452       0.00000079      -0.00000021      -0.00000062      -0.04983191
Li       3.73419214      10.67200023      20.26765085        0       0.63408220      -2.04222181       0.09910573       0.00004586       0.00023767       0.00000896      -0.00000322       0.00000167      -0.00006043      -0.41988434
Li       3.85435675       7.55765320      15.95054085        0      -0.68554818      -2.08144702      -0.10005042       0.00004573       0.00023945       0.00000876       0.00000373       0.00000155       0.00006191      -0.45511942
Li       5.73550779      13.30474352      19.05656075        1       0.00227721       0.00188093       0.11296324       0.00002373       0.00001194       0.00002452      -0.00000079       0.00000021      -0.00000062      -0.04983191
Li       1.85304188      10.35838935      17.16163095        1       0.00227750       0.00188093      -0.11296325       0.00002373       0.00001194       0.00002452       0.00000079      -0.00000021      -0.00000062      -0.04983191
Li       3.73419214      10.67200023      15.94226557        0       0.63408220      -2.04222181       0.09910573       0.00004586       0.00023767       0.00000896      -0.00000322       0.00000167      -0.00006043      -0.41988434
Li       3.79603232       7.36619378      11.62104042        0       0.03134801       0.02501135      -0.02509837       0.00000990       0.00001872       0.00001124      -0.00000019      -0.00000363      -0.00000247      -0.03199393
Li       5.73550779      13.30474352      14.73117547        1       0.00227721       0.00187735       0.11295720       0.00002373       0.00001194       0.00002452      -0.00000079       0.00000021      -0.00000062      -0.04983314
Li       1.85304187      10.35839843      12.83632676        1      -0.00375668       0.00310192       0.01534218       0.00000873       0.00000898       0.00000944      -0.00000108       0.00000033      -0.00000020      -0.02012409
Li       7.67849902      16.53115524      46.22407768        0      -0.00734087       0.04054809       0.01057423       0.00001195       0.00001483       0.00000974       0.00000230      -0.00000182       0.00000092      -0.02815062
Li       3.79251657      16.69425231      46.22407768        0      -0.02826373       0.02197884      -0.02382230       0.00000930       0.00001539       0.00000483       0.00000090      -0.00000052       0.00000119      -0.02285666
Li       3.85435675      13.77626051      41.90285253        0      -0.68554818      -2.08144702      -0.10005042       0.00004573       0.00023945       0.00000876       0.00000373       0.00000155       0.00006191      -0.45511942
Li       5.73550779      19.52335992      45.00879134        1      -0.00375677       0.00310192      -0.01534217       0.00000873       0.00000898       0.00000944       0.00000108      -0.00000033      -0.00000020      -0.02012409
Li       1.85304188      16.57699666      43.11394263        1       0.00227750       0.00187734      -0.11295720       0.00002373       0.00001194       0.00002452       0.00000079      -0.00000021      -0.00000062      -0.04983314
Li       7.73682344      16.72261465      41.89457724        0      -0.68554813      -2.08144693       0.10005028       0.00004573       0.00023945       0.00000876      -0.00000373      -0.00000155       0.00006191      -0.45511935
Li       3.73419214      16.89060755      41.89457724        0       0.63408220      -2.04222181       0.09910573       0.00004586       0.00023767       0.00000896      -0.00000322       0.00000167      -0.00006043      -0.41988434
Li       3.85435675      13.77626051      37.57746725        0      -0.68554818      -2.08144702      -0.10005042       0.00004573       0.00023945       0.00000876       0.00000373       0.00000155       0.00006191      -0.45511942
Li       5.73550779      19.52335084      40.68348714        1       0.00227721       0.00188093       0.11296324       0.00002373       0.00001194       0.00002452      -0.00000079       0.00000021      -0.00000062      -0.04983191
Li       1.85304188      16.57699666      38.78855735        1       0.00227750       0.00188093      -0.11296325       0.00002373       0.00001194       0.00002452       0.00000079      -0.00000021      -0.00000062      -0.04983191
Li       7.73682344      16.72261465      37.56919197        0      -0.68554813      -2.08144693       0.10005028       0.00004573       0.00023945       0.00000876      -0.00000373      -0.00000155       0.00006191      -0.45511935
Li       3.73419214      16.89060755      37.56919197        0       0.63408220      -2.04222181       0.09910573       0.00004586       0.00023767       0.00000896      -0.00000322       0.00000167      -0.00006043      -0.41988434
Li       3.85435675      13.77626051      33.25208197        0      -0.68554818      -2.08144702      -0.10005042       0.00004573       0.00023945       0.00000876       0.00000373       0.00000155       0.00006191      -0.45511942
Li       5.73550779      19.52335084      36.35810187        1       0.00227721       0.00188093       0.11296324       0.00002373       0.00001194       0.00002452      -0.00000079       0.00000021      -0.00000062      -0.04983191
Li       1.85304188      16.57699666      34.46317207        1       0.00227750       0.00188093      -0.11296325       0.00002373       0.00001194       0.00002452       0.00000079      -0.00000021      -0.00000062      -0.04983191
Li       7.73682344      16.72261465      33.24380669        0      -0.68554813      -2.08144693       0.10005028       0.00004573       0.00023945       0.00000876      -0.00000373      -0.00000155       0.00006191      -0.45511935
Li       3.73419214      16.89060755      33.24380669        0       0.63408220      -2.04222181       0.09910573       0.00004586       0.00023767       0.00000896      -0.00000322       0.00000167      -0.00006043      -0.41988434
Li       3.85435675      13.77626051      28.92669669        0      -0.68554818      -2.08144702      -0.10005042       0.00004573       0.00023945       0.00000876       0.00000373       0.00000155       0.00006191      -0.45511942
Li       5.73550779      19.52335084      32.03271659        1       0.00227721       0.00188093       0.11296324       0.00002373       0.00001194       0.00002452      -0.00000079       0.00000021      -0.00000062      -0.04983191
Li       1.85304188      16.57699666      30.13778679        1       0.00227750       0.00188093      -0.11296325       0.00002373       0.00001194       0.00002452       0.00000079      -0.00000021      -0.00000062      -0.04983191
Li       7.73682344      16.72261465      28.91842141        0      -0.68554813      -2.08144693       0.10005028       0.00004573       0.00023945       0.00000876      -0.00000373      -0.00000155       0.00006191      -0.45511935
Li       3.73419214      16.89060755      28.91842141        0       0.63408220      -2.04222181       0.09910573       0.00004586       0.00023767       0.00000896      -0.00000322       0.00000167      -0.00006043      -0.41988434
Li       3.85435675      13.77626051      24.60131141        0      -0.68554818      -2.08144702      -0.10005042       0.00004573       0.00023945       0.00000876       0.00000373       0.00000155       0.00006191      -0.45511942
Li       5.73550779      19.52335084      27.70733131        1       0.00227721       0.00188093       0.11296324       0.00002373       0.00001194       0.00002452      -0.00000079       0.00000021      -0.00000062      -0.04983191
Li       1.85304188      16.57699666      25.81240151        1       0.00227750       0.00188093      -0.11296325       0.00002373       0.00001194       0.00002452       0.00000079      -0.00000021      -0.00000062      -0.04983191
Li       7.73682344      16.72261465      24.59303613        0      -0.68554813      -2.08144693       0.10005028       0.00004573       0.00023945       0.00000876      -0.00000373      -0.00000155       0.00006191      -0.45511935
Li       3.73419214      16.89060755      24.59303613        0       0.63408220      -2.04222181       0.09910573       0.00004586       0.00023767       0.00000896      -0.00000322       0.00000167      -0.00006043      -0.41988434
Li       3.85435675      13.77626051      20.27592613        0      -0.68554818      -2.08144702      -0.10005042       0.00004573       0.00023945       0.00000876       0.00000373       0.00000155       0.00006191      -0.45511942
Li       5.73550779      19.52335084      23.38194603        1       0.00227721       0.00188093       0.11296324       0.00002373       0.00001194       0.00002452      -0.00000079       0.00000021      -0.00000062      -0.04983191
Li       1.85304188      16.57699666      21.48701623        1       0.00227750       0.00188093      -0.11296325       0.00002373       0.00001194       0.00002452       0.00000079      -0.00000021      -0.00000062      -0.04983191
Li       7.73682344      16.72261465      20.26765085        0      -0.68554813      -2.08144693       0.10005028       0.00004573       0.00023945       0.00000876      -0.00000373      -0.00000155       0.00006191      -0.45511935
Li       3.73419214      16.89060755      20.26765085        0       0.63408220      -2.04222181       0.09910573       0.00004586       0.00023767       0.00000896      -0.00000322       0.00000167      -0.00006043      -0.41988434
Li       3.85435675      13.77626051      15.95054085        0      -0.68554818      -2.08144702      -0.10005042       0.00004573       0.00023945       0.00000876       0.00000373       0.00000155       0.00006191      -0.45511942
Li       5.73550779      19.52335084      19.05656075        1       0.00227721       0.00188093       0.11296324       0.00002373       0.00001194       0.00002452      -0.00000079       0.00000021      -0.00000062      -0.04983191
Li       1.85304188      16.57699666      17.16163095        1       0.00227750       0.00188093      -0.11296325       0.00002373       0.00001194       0.00002452       0.00000079      -0.00000021      -0.00000062      -0.04983191
Li       7.73682344      16.72261465      15.94226557        0      -0.68554813      -2.08144693       0.10005028       0.00004573       0.00023945       0.00000876      -0.00000373      -0.00000155       0.00006191      -0.45511935
Li       3.73419214      16.89060755      15.94226557        0       0.63408220      -2.04222181       0.09910573       0.00004586       0.00023767       0.00000896      -0.00000322       0.00000167      -0.00006043      -0.41988434
Li       3.79603232      13.58480110      11.62104042        0       0.02627133       0.04003961      -0.01480934       0.00001327       0.00001517       0.00000984      -0.00000223      -0.00000294       0.00000167      -0.03016652
Li       5.73550779      19.52335084      14.73117547        1       0.00227721       0.00187735       0.11295720       0.00002373       0.00001194       0.00002452      -0.00000079       0.00000021      -0.00000062      -0.04983314
Li       1.85304187      16.57700574      12.83632676        1      -0.00375668       0.00310192       0.01534218       0.00000873       0.00000898       0.00000944      -0.00000108       0.00000033      -0.00000020      -0.02012409
Li       7.67849902      22.74976255      46.22407768        0       0.00254260       0.05010418       0.01048974       0.00000913       0.00001792       0.00000973       0.00000370      -0.00000037      -0.00000180      -0.02844015
Li       3.79251657      22.91285963      46.22407768        0      -0.03042920       0.00787160       0.12860769       0.00000910       0.00001445       0.00002711      -0.00000116      -0.00000084       0.00000074      -0.04737485
Li       7.61665884      19.83696169      41.90285253        0       0.63408219      -2.04222172      -0.09910560       0.00004586       0.00023767       0.00000896       0.00000322      -0.00000167      -0.00006043      -0.41988427
Li       3.85435675      19.99486782      41.90285253        0      -0.68554818      -2.08144702      -0.10005042       0.00004573       0.00023945       0.00000876       0.00000373       0.00000155       0.00006191      -0.45511942
Li       5.73550779      25.74196723      45.00879134        1      -0.00375677       0.00310192      -0.01534217       0.00000873       0.00000898       0.00000944       0.00000108      -0.00000033      -0.00000020      -0.02012409
Li       7.73682344      22.94122196      41.89457724        0      -0.68554813      -2.08144693       0.10005028       0.00004573       0.00023945       0.00000876      -0.00000373      -0.00000155       0.00006191      -0.45511935
Li       3.73419214      23.10921486      41.89457724        0       0.63408220      -2.04222181       0.09910573       0.00004586       0.00023767       0.00000896      -0.00000322       0.00000167      -0.00006043      -0.41988434
Li       7.61665884      19.83696169      37.57746725        0       0.63408219      -2.04222172      -0.09910560       0.00004586       0.00023767       0.00000896       0.00000322      -0.00000167      -0.00006043      -0.41988427
Li       3.85435675      19.99486782      37.57746725        0      -0.68554818      -2.08144702      -0.10005042       0.00004573       0.00023945       0.00000876       0.00000373       0.00000155       0.00006191      -0.45511942
Li       5.73550779      25.74195815      40.68348714        1       0.00227721       0.00188093       0.11296324       0.00002373       0.00001194       0.00002452      -0.00000079       0.00000021      -0.00000062      -0.04983191
Li       7.73682344      22.94122196      37.56919197        0      -0.68554813      -2.08144693       0.10005028       0.00004573       0.00023945       0.00000876      -0.00000373      -0.00000155       0.00006191      -0.45511935
Li       3.73419214      23.10921486      37.56919197        0       0.63408220      -2.04222181       0.09910573       0.00004586       0.00023767       0.00000896      -0.00000322       0.00000167      -0.00006043      -0.41988434
Li       7.61665884      19.83696169      33.25208197        0       0.63408219      -2.04222172      -0.09910560       0.00004586       0.00023767       0.00000896       0.00000322      -0.00000167      -0.00006043      -0.41988427
Li       3.85435675      19.99486782      33.25208197        0      -0.68554818      -2.08144702      -0.10005042       0.00004573       0.00023945       0.00000876       0.00000373       0.00000155       0.00006191      -0.45511942
Li       5.73550779      25.74195815      36.35810187        1       0.00227721       0.00188093       0.11296324       0.00002373       0.00001194       0.00002452      -0.00000079       0.00000021      -0.00000062      -0.04983191
Li       7.73682344      22.94122196      33.24380669        0      -0.68554813      -2.08144693       0.10005028       0.00004573       0.00023945       0.00000876      -0.00000373      -0.00000155       0.00006191      -0.45511935
Li       3.73419214      23.10921486      33.24380669        0       0.63408220      -2.04222181       0.09910573       0.00004586       0.00023767       0.00000896      -0.00000322       0.00000167      -0.00006043      -0.41988434
Li       7.61665884      19.83696169      28.92669669        0       0.63408219      -2.04222172      -0.09910560       0.00004586       0.00023767       0.00000896       0.00000322      -0.00000167      -0.00006043      -0.41988427
Li       3.85435675      19.99486782      28.92669669        0      -0.68554818      -2.08144702      -0.10005042       0.00004573       0.00023945       0.00000876       0.00000373       0.00000155       0.00006191      -0.45511942
Li       5.73550779      25.74195815      32.03271659        1       0.00227721       0.00188093       0.11296324       0.00002373       0.00001194       0.00002452      -0.00000079       0.00000021      -0.00000062      -0.04983191
Li       7.73682344      22.94122196      28.91842141        0      -0.68554813      -2.08144693       0.10005028       0.00004573       0.00023945       0.00000876      -0.00000373      -0.00000155       0.00006191      -0.45511935
Li       3.73419214      23.10921486      28.91842141        0       0.63408220      -2.04222181       0.09910573       0.00004586       0.00023767       0.00000896      -0.00000322       0.00000167      -0.00006043      -0.41988434
Li       7.61665884      19.83696169      24.60131141        0       0.63408219      -2.04222172      -0.09910560       0.00004586       0.00023767       0.00000896       0.00000322      -0.00000167      -0.00006043      -0.41988427
Li       3.85435675      19.99486782      24.60131141        0      -0.68554818      -2.08144702      -0.10005042       0.00004573       0.00023945       0.00000876       0.00000373       0.00000155       0.00006191      -0.45511942
Li       5.73550779      25.74195815      27.70733131        1       0.00227721       0.00188093       0.11296324       0.00002373       0.00001194       0.00002452      -0.00000079       0.00000021      -0.00000062      -0.04983191
Li       7.73682344      22.94122196      24.59303613        0      -0.68554813      -2.08144693       0.10005028       0.00004573       0.00023945       0.00000876      -0.00000373      -0.00000155       0.00006191      -0.45511935
Li       3.73419214      23.10921486      24.59303613        0       0.63408220      -2.04222181       0.09910573       0.00004586       0.00023767       0.00000896      -0.00000322       0.00000167      -0.00006043      -0.41988434
Li       7.61665884      19.83696169      20.27592613        0       0.63408219      -2.04222172      -0.09910560       0.00004586       0.00023767       0.00000896       0.00000322      -0.00000167      -0.00006043      -0.41988427
Li       3.85435675      19.99486782      20.27592613        0      -0.68554818      -2.08144702      -0.10005042       0.00004573       0.00023945       0.00000876       0.00000373       0.00000155       0.00006191      -0.45511942
Li       5.73550779      25.74195815      23.38194603        1       0.00227721       0.00188093       0.11296324       0.00002373       0.00001194       0.00002452      -0.00000079       0.00000021      -0.00000062      -0.04983191
Li       7.73682344      22.94122196      20.26765085        0      -0.68554813      -2.08144693       0.10005028       0.00004573       0.00023945       0.00000876      -0.00000373      -0.00000155       0.00006191      -0.45511935
Li       3.73419214      23.10921486      20.26765085        0       0.63408220      -2.04222181       0.09910573       0.00004586       0.00023767       0.00000896      -0.00000322       0.00000167      -0.00006043      -0.41988434
Li       7.61665884      19.83696169      15.95054086        0       0.63408219      -2.04222172      -0.09910560       0.00004586       0.00023767       0.00000896       0.00000322      -0.00000167      -0.00006043      -0.41988427
Li       3.85435675      19.99486782      15.95054085        0      -0.68554818      -2.08144702      -0.10005042       0.00004573       0.00023945       0.00000876       0.00000373       0.00000155       0.00006191      -0.45511942
Li       5.73550779      25.74195815      19.05656075        1       0.00227721       0.00188093       0.11296324       0.00002373       0.00001194       0.00002452      -0.00000079       0.00000021      -0.00000062      -0.04983191
Li       7.73682344      22.94122196      15.94226557        0      -0.68554813      -2.08144693       0.10005028       0.00004573       0.00023945       0.00000876      -0.00000373      -0.00000155       0.00006191      -0.45511935
Li       3.73419214      23.10921486      15.94226557        0       0.63408220      -2.04222181       0.09910573       0.00004586       0.00023767       0.00000896      -0.00000322       0.00000167      -0.00006043      -0.41988434
Li       7.67498326      19.64060645      11.62104042        0      -0.04224660      -0.01569362      -0.04875294       0.00000960       0.00001771       0.00001456       0.00000410       0.00000238       0.00000204      -0.03711181
Li       3.79603232      19.80340841      11.62104042        0      -0.03465630       0.06284380      -0.04578390       0.00001188       0.00001517       0.00001405      -0.00000533       0.00000533      -0.00000190      -0.03621617
Li       5.73550779      25.74195815      14.73117547        1       0.00227721       0.00187735       0.11295720       0.00002373       0.00001194       0.00002452      -0.00000079       0.00000021      -0.00000062      -0.04983314
Li       7.67849902      28.96836986      46.22407768        0       0.04045750       0.03191194       0.01343390       0.00001093       0.00001458       0.00001016       0.00000104       0.00000517      -0.00000097      -0.02993232
Li       7.61665884      26.05556900      41.90285253        0       0.63408219      -2.04222172      -0.09910560       0.00004586       0.00023767       0.00000896       0.00000322      -0.00000167      -0.00006043      -0.41988427
Li       7.73682344      29.15982928      41.89457724        0      -0.68554813      -2.08144693       0.10005028       0.00004573       0.00023945       0.00000876      -0.00000373      -0.00000155       0.00006191      -0.45511935
Li       7.61665884      26.05556900      37.57746725        0       0.63408219      -2.04222172      -0.09910560       0.00004586       0.00023767       0.00000896       0.00000322      -0.00000167      -0.00006043      -0.41988427
Li       7.73682344      29.15982928      37.56919197        0      -0.68554813      -2.08144693       0.10005028       0.00004573       0.00023945       0.00000876      -0.00000373      -0.00000155       0.00006191      -0.45511935