504
Lattice="-4.166030694342068e-16 18.6558219398172 0.0 7.764933388889874 18.32992290740971 0.0 0.0 0.0 46.34378184376172" Properties=species:S:1:pos:R:3:spacegroup_kinds:I:1:forces:R:3:stresses:R:6:energies:R:1 spacegroup="P m n 21" unit_cell=conventional occupancy="_JSON {\"0\": {\"Li\": 1.0}, \"1\": {\"Li\": 1.0}, \"2\": {\"P\": 1.0}, \"3\": {\"S\": 0.97}, \"4\": {\"S\": 0.98}, \"5\": {\"S\": 0.99}}" energy=-106.55066021736891 stress="0.016269004443655154 -0.00016895840494448805 1.875300171886373e-05 -0.00016895840494448805 0.04738008930580758 2.7663211467649055e-05 1.875300171886373e-05 2.7663211467649055e-05 0.021291450079664504" free_energy=-106.55066021736891 pbc="T T T"
Li       1.52715276       4.25722558      42.48364679        1       0.00227750       0.00187734      -0.11295720       0.00002418       0.00001216       0.00002499       0.00000080      -0.00000021      -0.00000063      -0.04983314
Li       1.52715276       4.25722558      38.15826151        1       0.00227750       0.00188093      -0.11296325       0.00002418       0.00001216       0.00002499       0.00000080      -0.00000021      -0.00000063      -0.04983191
Li       1.52715276       4.25722558      33.83287623        1       0.00227750       0.00188093      -0.11296325       0.00002418       0.00001216       0.00002499       0.00000080      -0.00000021      -0.00000063      -0.04983191
Li       1.52715276       4.25722558      29.50749095        1       0.00227750       0.00188093      -0.11296325       0.00002418       0.00001216       0.00002499       0.00000080      -0.00000021      -0.00000063      -0.04983191
Li       1.52715276       4.25722558      25.18210567        1       0.00227750       0.00188093      -0.11296325       0.00002418       0.00001216       0.00002499       0.00000080      -0.00000021      -0.00000063      -0.04983191
Li       1.52715276       4.25722558      20.85672039        1       0.00227750       0.00188093      -0.11296325       0.00002418       0.00001216       0.00002499       0.00000080      -0.00000021      -0.00000063      -0.04983191
Li       1.52715276       4.25722558      16.53133511        1       0.00227750       0.00188093      -0.11296325       0.00002418       0.00001216       0.00002499       0.00000080      -0.00000021      -0.00000063      -0.04983191
Li       1.52715276       4.25723466      12.20603092        1      -0.00057457       0.00525040      -0.00479745       0.00000900       0.00000920       0.00001366      -0.00000153      -0.00000030      -0.00000013      -0.02208006
Li       3.46662746      10.59308854      45.59378184        0      -0.00009041       0.05637896       0.05393592       0.00001994       0.00001673       0.00001315       0.00000518       0.00000278       0.00000568      -0.04238993
Li       3.52846764       7.67509674      41.27255669        0      -0.68554818      -2.08144702      -0.10005042       0.00004660       0.00024400       0.00000893       0.00000380       0.00000158       0.00006309      -0.45511942
Li       5.40961868      13.42219615      44.37849550        1      -0.00375677       0.00310192      -0.01534217       0.00000890       0.00000915       0.00000962       0.00000110      -0.00000034      -0.00000020      -0.02012409
Li       1.52715276      10.47583290      42.48364679        1       0.00227750       0.00187734      -0.11295720       0.00002418       0.00001216       0.00002499       0.00000080      -0.00000021      -0.00000063      -0.04983314
Li       3.40830303      10.78944378      41.26428140        0       0.63408220      -2.04222181       0.09910573       0.00004673       0.00024218       0.00000913      -0.00000329       0.00000170      -0.00006158      -0.41988434
Li       3.52846764       7.67509674      36.94717141        0      -0.68554818      -2.08144702      -0.10005042       0.00004660       0.00024400       0.00000893       0.00000380       0.00000158       0.00006309      -0.45511942
Li       5.40961868      13.42218707      40.05319130        1       0.00227721       0.00188093       0.11296324       0.00002418       0.00001216       0.00002499      -0.00000080       0.00000021      -0.00000063      -0.04983191
Li       1.52715276      10.47583290      38.15826151        1       0.00227750       0.00188093      -0.11296325       0.00002418       0.00001216       0.00002499       0.00000080      -0.00000021      -0.00000063      -0.04983191
Li       3.40830303      10.78944378      36.93889612        0       0.63408220      -2.04222181       0.09910573       0.00004673       0.00024218       0.00000913      -0.00000329       0.00000170      -0.00006158      -0.41988434
Li       3.52846764       7.67509674      32.62178613        0      -0.68554818      -2.08144702      -0.10005042       0.00004660       0.00024400       0.00000893       0.00000380       0.00000158       0.00006309      -0.45511942
Li       5.40961868      13.42218707      35.72780602        1       0.00227721       0.00188093       0.11296324       0.00002418       0.00001216       0.00002499      -0.00000080       0.00000021      -0.00000063      -0.04983191
Li       1.52715276      10.47583290      33.83287623        1       0.00227750       0.00188093      -0.11296325       0.00002418       0.00001216       0.00002499       0.00000080      -0.00000021      -0.00000063      -0.04983191
Li       3.40830303      10.78944378      32.61351085        0       0.63408220      -2.04222181       0.09910573       0.00004673       0.00024218       0.00000913      -0.00000329       0.00000170      -0.00006158      -0.41988434
Li       3.52846764       7.67509674      28.29640085        0      -0.68554818      -2.08144702      -0.10005042       0.00004660       0.00024400       0.00000893       0.00000380       0.00000158       0.00006309      -0.45511942
Li       5.40961868      13.42218707      31.40242075        1       0.00227721       0.00188093       0.11296324       0.00002418       0.00001216       0.00002499      -0.00000080       0.00000021      -0.00000063      -0.04983191
Li       1.52715276      10.47583290      29.50749095        1       0.00227750       0.00188093      -0.11296325       0.00002418       0.00001216       0.00002499       0.00000080      -0.00000021      -0.00000063      -0.04983191
Li       3.40830303      10.78944378      28.28812557        0       0.63408220      -2.04222181       0.09910573       0.00004673       0.00024218       0.00000913      -0.00000329       0.00000170      -0.00006158      -0.41988434
Li       3.52846764       7.67509674      23.97101557        0      -0.68554818      -2.08144702      -0.10005042       0.00004660       0.00024400       0.00000893       0.00000380       0.00000158       0.00006309      -0.45511942
Li       5.40961868      13.42218707      27.07703547        1       0.00227721       0.00188093       0.11296324       0.00002418       0.00001216       0.00002499      -0.00000080       0.00000021      -0.00000063      -0.04983191
Li       1.52715276      10.47583290      25.18210567        1       0.00227750       0.00188093      -0.11296325       0.00002418       0.00001216       0.00002499       0.00000080      -0.00000021      -0.00000063      -0.04983191
Li       3.40830303      10.78944378      23.96274029        0       0.63408220      -2.04222181       0.09910573       0.00004673       0.00024218       0.00000913      -0.00000329       0.00000170      -0.00006158      -0.41988434
Li       3.52846764       7.67509674      19.64563029        0      -0.68554818      -2.08144702      -0.10005042       0.00004660       0.00024400       0.00000893       0.00000380       0.00000158       0.00006309      -0.45511942
Li       5.40961868      13.42218707      22.75165019        1       0.00227721       0.00188093       0.11296324       0.00002418       0.00001216       0.00002499      -0.00000080       0.00000021      -0.00000063      -0.04983191
Li       1.52715276      10.47583290      20.85672039        1       0.00227750       0.00188093      -0.11296325       0.00002418       0.00001216       0.00002499       0.00000080      -0.00000021      -0.00000063      -0.04983191
Li       3.40830303      10.78944378      19.63735501        0       0.63408220      -2.04222181       0.09910573       0.00004673       0.00024218       0.00000913      -0.00000329       0.00000170      -0.00006158      -0.41988434
Li       3.52846764       7.67509674      15.32024501        0      -0.68554818      -2.08144702      -0.10005042       0.00004660       0.00024400       0.00000893       0.00000380       0.00000158       0.00006309      -0.45511942
Li       5.40961868      13.42218707      18.42626491        1       0.00227721       0.00188093       0.11296324       0.00002418       0.00001216       0.00002499      -0.00000080       0.00000021      -0.00000063      -0.04983191
Li       1.52715276      10.47583290      16.53133511        1       0.00227750       0.00188093      -0.11296325       0.00002418       0.00001216       0.00002499       0.00000080      -0.00000021      -0.00000063      -0.04983191
Li       3.40830303      10.78944378      15.31196973        0       0.63408220      -2.04222181       0.09910573       0.00004673       0.00024218       0.00000913      -0.00000329       0.00000170      -0.00006158      -0.41988434
Li       3.47014321       7.48363733      10.99074457        0       0.03972599       0.08787485      -0.02957290       0.00001069       0.00002318       0.00001024      -0.00000756      -0.00000405       0.00000016      -0.03594483
Li       5.40961868      13.42218707      14.10087963        1       0.00227721       0.00187735       0.11295720       0.00002418       0.00001216       0.00002499      -0.00000080       0.00000021      -0.00000063      -0.04983314
Li       1.52715276      10.47584198      12.20603092        1      -0.00375668       0.00310192       0.01534218       0.00000890       0.00000915       0.00000962      -0.00000110       0.00000034      -0.00000020      -0.02012409
Li       7.35260991      16.64859878      45.59378184        0      -0.14487379      -0.14419462       0.39309234       0.00001486       0.00002354       0.00005096      -0.00001829      -0.00001653       0.00000733      -0.09210282
Li       3.46662746      16.81169586      45.59378184        0      -0.08875617       0.06546754       0.05998087       0.00001508       0.00002096       0.00001382       0.00000620      -0.00000713      -0.00000412      -0.04249708
Li       3.52846764      13.89370406      41.27255669        0      -0.68554818      -2.08144702      -0.10005042       0.00004660       0.00024400       0.00000893       0.00000380       0.00000158       0.00006309      -0.45511942
Li       5.40961868      19.64080346      44.37849550        1      -0.00303006      -0.00029159       0.00399867       0.00000890       0.00000927       0.00001353       0.00000041      -0.00000019      -0.00000022      -0.02191190
Li       1.52715276      16.69444021      42.48364679        1       0.00227750       0.00187734      -0.11295720       0.00002418       0.00001216       0.00002499       0.00000080      -0.00000021      -0.00000063      -0.04983314
Li       7.41093433      16.84005820      41.26428140        0      -0.68554813      -2.08144693       0.10005028       0.00004660       0.00024400       0.00000893      -0.00000380      -0.00000158       0.00006309      -0.45511935
Li       3.40830303      17.00805109      41.26428140        0       0.63408220      -2.04222181       0.09910573       0.00004673       0.00024218       0.00000913      -0.00000329       0.00000170      -0.00006158      -0.41988434
Li       3.52846764      13.89370406      36.94717141        0      -0.68554818      -2.08144702      -0.10005042       0.00004660       0.00024400       0.00000893       0.00000380       0.00000158       0.00006309      -0.45511942
Li       5.40961868      19.64079438      40.05319130        1       0.00227721       0.00188093       0.11296324       0.00002418       0.00001216       0.00002499      -0.00000080       0.00000021      -0.00000063      -0.04983191
Li       1.52715276      16.69444021      38.15826151        1       0.00227750       0.00188093      -0.11296325       0.00002418       0.00001216       0.00002499       0.00000080      -0.00000021      -0.00000063      -0.04983191
Li       7.41093433      16.84005820      36.93889612        0      -0.68554813      -2.08144693       0.10005028       0.00004660       0.00024400       0.00000893      -0.00000380      -0.00000158       0.00006309      -0.45511935
Li       3.40830303      17.00805109      36.93889612        0       0.63408220      -2.04222181       0.09910573       0.00004673       0.00024218       0.00000913      -0.00000329       0.00000170      -0.00006158      -0.41988434
Li       3.52846764      13.89370406      32.62178613        0      -0.68554818      -2.08144702      -0.10005042       0.00004660       0.00024400       0.00000893       0.00000380       0.00000158       0.00006309      -0.45511942
Li       5.40961868      19.64079438      35.72780602        1       0.00227721       0.00188093       0.11296324       0.00002418       0.00001216       0.00002499      -0.00000080       0.00000021      -0.00000063      -0.04983191
Li       1.52715276      16.69444021      33.83287623        1       0.00227750       0.00188093      -0.11296325       0.00002418       0.00001216       0.00002499       0.00000080      -0.00000021      -0.00000063      -0.04983191
Li       7.41093433      16.84005820      32.61351085        0      -0.68554813      -2.08144693       0.10005028       0.00004660       0.00024400       0.00000893      -0.00000380      -0.00000158       0.00006309      -0.45511935
Li       3.40830303      17.00805109      32.61351085        0       0.63408220      -2.04222181       0.09910573       0.00004673       0.00024218       0.00000913      -0.00000329       0.00000170      -0.00006158      -0.41988434
Li       3.52846764      13.89370406      28.29640085        0      -0.68554818      -2.08144702      -0.10005042       0.00004660       0.00024400       0.00000893       0.00000380       0.00000158       0.00006309      -0.45511942
Li       5.40961868      19.64079438      31.40242075        1       0.00227721       0.00188093       0.11296324       0.00002418       0.00001216       0.00002499      -0.00000080       0.00000021      -0.00000063      -0.04983191
Li       1.52715276      16.69444021      29.50749095        1       0.00227750       0.00188093      -0.11296325       0.00002418       0.00001216       0.00002499       0.00000080      -0.00000021      -0.00000063      -0.04983191
Li       7.41093433      16.84005820      28.28812557        0      -0.68554813      -2.08144693       0.10005028       0.00004660       0.00024400       0.00000893      -0.00000380      -0.00000158       0.00006309      -0.45511935
Li       3.40830303      17.00805109      28.28812557        0       0.63408220      -2.04222181       0.09910573       0.00004673       0.00024218       0.00000913      -0.00000329       0.00000170      -0.00006158      -0.41988434
Li       3.52846764      13.89370406      23.97101557        0      -0.68554818      -2.08144702      -0.10005042       0.00004660       0.00024400       0.00000893       0.00000380       0.00000158       0.00006309      -0.45511942
Li       5.40961868      19.64079438      27.07703547        1       0.00227721       0.00188093       0.11296324       0.00002418       0.00001216       0.00002499      -0.00000080       0.00000021      -0.00000063      -0.04983191
Li       1.52715276      16.69444021      25.18210567        1       0.00227750       0.00188093      -0.11296325       0.00002418       0.00001216       0.00002499       0.00000080      -0.00000021      -0.00000063      -0.04983191
Li       7.41093433      16.84005820      23.96274029        0      -0.68554813      -2.08144693       0.10005028       0.00004660       0.00024400       0.00000893      -0.00000380      -0.00000158       0.00006309      -0.45511935
Li       3.40830303      17.00805109      23.96274029        0       0.63408220      -2.04222181       0.09910573       0.00004673       0.00024218       0.00000913      -0.00000329       0.00000170      -0.00006158      -0.41988434
Li       3.52846764      13.89370406      19.64563029        0      -0.68554818      -2.08144702      -0.10005042       0.00004660       0.00024400       0.00000893       0.00000380       0.00000158       0.00006309      -0.45511942
Li       5.40961868      19.64079438      22.75165019        1       0.00227721       0.00188093       0.11296324       0.00002418       0.00001216       0.00002499      -0.00000080       0.00000021      -0.00000063      -0.04983191
Li       1.52715276      16.69444021      20.85672039        1       0.00227750       0.00188093      -0.11296325       0.00002418       0.00001216       0.00002499       0.00000080      -0.00000021      -0.00000063      -0.04983191
Li       7.41093433      16.84005820      19.63735501        0      -0.68554813      -2.08144693       0.10005028       0.00004660       0.00024400       0.00000893      -0.00000380      -0.00000158       0.00006309      -0.45511935
Li       3.40830303      17.00805109      19.63735501        0       0.63408220      -2.04222181       0.09910573       0.00004673       0.00024218       0.00000913      -0.00000329       0.00000170      -0.00006158      -0.41988434
Li       3.52846764      13.89370406      15.32024501        0      -0.68554818      -2.08144702      -0.10005042       0.00004660       0.00024400       0.00000893       0.00000380       0.00000158       0.00006309      -0.45511942
Li       5.40961868      19.64079438      18.42626491        1       0.00227721       0.00188093       0.11296324       0.00002418       0.00001216       0.00002499      -0.00000080       0.00000021      -0.00000063      -0.04983191
Li       1.52715276      16.69444021      16.53133511        1       0.00227750       0.00188093      -0.11296325       0.00002418       0.00001216       0.00002499       0.00000080      -0.00000021      -0.00000063      -0.04983191
Li       7.41093433      16.84005820      15.31196973        0      -0.68554813      -2.08144693       0.10005028       0.00004660       0.00024400       0.00000893      -0.00000380      -0.00000158       0.00006309      -0.45511935
Li       3.40830303      17.00805109      15.31196973        0       0.63408220      -2.04222181       0.09910573       0.00004673       0.00024218       0.00000913      -0.00000329       0.00000170      -0.00006158      -0.41988434
Li       3.47014321      13.70224464      10.99074457        0      -0.00802244      -0.01544540      -0.03350256       0.00001347       0.00002052       0.00001068       0.00000382       0.00000121       0.00000345      -0.03658697
Li       5.40961868      19.64079438      14.10087963        1       0.00227721       0.00187735       0.11295720       0.00002418       0.00001216       0.00002499      -0.00000080       0.00000021      -0.00000063      -0.04983314
Li       1.52715276      16.69444929      12.20603092        1      -0.00462418      -0.00175480       0.00479435       0.00000891       0.00000960       0.00001174      -0.00000012       0.00000051      -0.00000012      -0.02027395
Li       7.35260991      22.86720610      45.59378184        0       0.03754200       0.27203199       0.35953422       0.00000870       0.00002978       0.00004721       0.00002821       0.00000385       0.00000153      -0.08763939
Li       3.46662746      23.03030317      45.59378184        0       0.11616873      -0.08913419       0.25479820       0.00001729       0.00002307       0.00003559      -0.00001107       0.00001577      -0.00000727      -0.07297360
Li       7.29076973      19.95440523      41.27255669        0       0.63408219      -2.04222172      -0.09910560       0.00004673       0.00024218       0.00000913       0.00000329      -0.00000170      -0.00006158      -0.41988427
Li       3.52846764      20.11231137      41.27255669        0      -0.68554818      -2.08144702      -0.10005042       0.00004660       0.00024400       0.00000893       0.00000380       0.00000158       0.00006309      -0.45511942
Li       5.40961868      25.85941078      44.37849550        1      -0.00375677       0.00310192      -0.01534217       0.00000890       0.00000915       0.00000962       0.00000110      -0.00000034      -0.00000020      -0.02012409
Li       7.41093433      23.05866551      41.26428140        0      -0.68554813      -2.08144693       0.10005028       0.00004660       0.00024400       0.00000893      -0.00000380      -0.00000158       0.00006309      -0.45511935
Li       3.40830303      23.22665841      41.26428140        0       0.63408220      -2.04222181       0.09910573       0.00004673       0.00024218       0.00000913      -0.00000329       0.00000170      -0.00006158      -0.41988434
Li       7.29076973      19.95440523      36.94717141        0       0.63408219      -2.04222172      -0.09910560       0.00004673       0.00024218       0.00000913       0.00000329      -0.00000170      -0.00006158      -0.41988427
Li       3.52846764      20.11231137      36.94717141        0      -0.68554818      -2.08144702      -0.10005042       0.00004660       0.00024400       0.00000893       0.00000380       0.00000158       0.00006309      -0.45511942
Li       5.40961868      25.85940170      40.05319130        1       0.00227721       0.00188093       0.11296324       0.00002418       0.00001216       0.00002499      -0.00000080       0.00000021      -0.00000063      -0.04983191
Li       7.41093433      23.05866551      36.93889612        0      -0.68554813      -2.08144693       0.10005028       0.00004660       0.00024400       0.00000893      -0.00000380      -0.00000158       0.00006309      -0.45511935
Li       3.40830303      23.22665841      36.93889612        0       0.63408220      -2.04222181       0.09910573       0.00004673       0.00024218       0.00000913      -0.00000329       0.00000170      -0.00006158      -0.41988434
Li       7.29076973      19.95440523      32.62178613        0       0.63408219      -2.04222172      -0.09910560       0.00004673       0.00024218       0.00000913       0.00000329      -0.00000170      -0.00006158      -0.41988427
Li       3.52846764      20.11231137      32.62178613        0      -0.68554818      -2.08144702      -0.10005042       0.00004660       0.00024400       0.00000893       0.00000380       0.00000158       0.00006309      -0.45511942
Li       5.40961868      25.85940170      35.72780602        1       0.00227721       0.00188093       0.11296324       0.00002418       0.00001216       0.00002499      -0.00000080       0.00000021      -0.00000063      -0.04983191
Li       7.41093433      23.05866551      32.61351085        0      -0.68554813      -2.08144693       0.10005028       0.00004660       0.00024400       0.00000893      -0.00000380      -0.00000158       0.00006309      -0.45511935
Li       3.40830303      23.22665841      32.61351085        0       0.63408220      -2.04222181       0.09910573       0.00004673       0.00024218       0.00000913      -0.00000329       0.00000170      -0.00006158      -0.41988434
Li       7.29076973      19.95440523      28.29640085        0       0.63408219      -2.04222172      -0.09910560       0.00004673       0.00024218       0.00000913       0.00000329      -0.00000170      -0.00006158      -0.41988427
Li       3.52846764      20.11231137      28.29640085        0      -0.68554818      -2.08144702      -0.10005042       0.00004660       0.00024400       0.00000893       0.00000380       0.00000158       0.00006309      -0.45511942
Li       5.40961868      25.85940170      31.40242075        1       0.00227721       0.00188093       0.11296324       0.00002418       0.00001216       0.00002499      -0.00000080       0.00000021      -0.00000063      -0.04983191
Li       7.41093433      23.05866551      28.28812557        0      -0.68554813      -2.08144693       0.10005028       0.00004660       0.00024400       0.00000893      -0.00000380      -0.00000158       0.00006309      -0.45511935
Li       3.40830303      23.22665841      28.28812557        0       0.63408220      -2.04222181       0.09910573       0.00004673       0.00024218       0.00000913      -0.00000329       0.00000170      -0.00006158      -0.41988434
Li       7.29076973      19.95440523      23.97101557        0       0.63408219      -2.04222172      -0.09910560       0.00004673       0.00024218       0.00000913       0.00000329      -0.00000170      -0.00006158      -0.41988427
Li       3.52846764      20.11231137      23.97101557        0      -0.68554818      -2.08144702      -0.10005042       0.00004660       0.00024400       0.00000893       0.00000380       0.00000158       0.00006309      -0.45511942
Li       5.40961868      25.85940170      27.07703547        1       0.00227721       0.00188093       0.11296324       0.00002418       0.00001216       0.00002499      -0.00000080       0.00000021      -0.00000063      -0.04983191
Li       7.41093433      23.05866551      23.96274029        0      -0.68554813      -2.08144693       0.10005028       0.00004660       0.00024400       0.00000893      -0.00000380      -0.00000158       0.00006309      -0.45511935
Li       3.40830303      23.22665841      23.96274029        0       0.63408220      -2.04222181       0.09910573       0.00004673       0.00024218       0.00000913      -0.00000329       0.00000170      -0.00006158      -0.41988434
Li       7.29076973      19.95440523      19.64563029        0       0.63408219      -2.04222172      -0.09910560       0.00004673       0.00024218       0.00000913       0.00000329      -0.00000170      -0.00006158      -0.41988427
Li       3.52846764      20.11231137      19.64563029        0      -0.68554818      -2.08144702      -0.10005042       0.00004660       0.00024400       0.00000893       0.00000380       0.00000158       0.00006309      -0.45511942
Li       5.40961868      25.85940170      22.75165019        1       0.00227721       0.00188093       0.11296324       0.00002418       0.00001216       0.00002499      -0.00000080       0.00000021      -0.00000063      -0.04983191
Li       7.41093433      23.05866551      19.63735501        0      -0.68554813      -2.08144693       0.10005028       0.00004660       0.00024400       0.00000893      -0.00000380      -0.00000158       0.00006309      -0.45511935
Li       3.40830303      23.22665841      19.63735501        0       0.63408220      -2.04222181       0.09910573       0.00004673       0.00024218       0.00000913      -0.00000329       0.00000170      -0.00006158      -0.41988434
Li       7.29076973      19.95440523      15.32024501        0       0.63408219      -2.04222172      -0.09910560       0.00004673       0.00024218       0.00000913       0.00000329      -0.00000170      -0.00006158      -0.41988427
Li       3.52846764      20.11231137      15.32024501        0      -0.68554818      -2.08144702      -0.10005042       0.00004660       0.00024400       0.00000893       0.00000380       0.00000158       0.00006309      -0.45511942
Li       5.40961868      25.85940170      18.42626491        1       0.00227721       0.00188093       0.11296324       0.00002418       0.00001216       0.00002499      -0.00000080       0.00000021      -0.00000063      -0.04983191
Li       7.41093433      23.05866551      15.31196973        0      -0.68554813      -2.08144693       0.10005028       0.00004660       0.00024400       0.00000893      -0.00000380      -0.00000158       0.00006309      -0.45511935
Li       3.40830303      23.22665841      15.31196973        0       0.63408220      -2.04222181       0.09910573       0.00004673       0.00024218       0.00000913      -0.00000329       0.00000170      -0.00006158      -0.41988434
Li       7.34909415      19.75805000      10.99074457        0      -0.01766205      -0.01426061      -0.07793521       0.00001116       0.00002762       0.00001564       0.00000263      -0.00000081      -0.00000430      -0.04764159
Li       3.47014321      19.92085196      10.99074457        0      -0.16169593       0.13042482      -1.10944557       0.00001138       0.00001539       0.00012912      -0.00001224       0.00001812      -0.00000169      -0.17912303
Li       5.40961868      25.85940170      14.10087963        1       0.00227721       0.00187735       0.11295720       0.00002418       0.00001216       0.00002499      -0.00000080       0.00000021      -0.00000063      -0.04983314
Li       7.35260991      29.08581341      45.59378184        0       0.02912433       0.03321988      -0.00624363       0.00001229       0.00001862       0.00000635       0.00000153       0.00000291       0.00000017      -0.02543770
Li       7.29076973      26.17301255      41.27255669        0       0.63408219      -2.04222172      -0.09910560       0.00004673       0.00024218       0.00000913       0.00000329      -0.00000170      -0.00006158      -0.41988427
Li       7.41093433      29.27727282      41.26428140        0      -0.68554813      -2.08144693       0.10005028       0.00004660       0.00024400       0.00000893      -0.00000380      -0.00000158       0.00006309      -0.45511935
Li       7.29076973      26.17301255      36.94717141        0       0.63408219      -2.04222172      -0.09910560       0.00004673       0.00024218       0.00000913       0.00000329      -0.00000170      -0.00006158      -0.41988427
Li       7.41093433      29.27727282      36.93889612        0      -0.68554813      -2.08144693       0.10005028       0.00004660       0.00024400       0.00000893      -0.00000380      -0.00000158       0.00006309      -0.45511935