504
Lattice="-4.166030694342068e-16 18.6558219398172 0.0 7.764933388889874 18.32992290740971 0.0 0.0 0.0 47.66391315560101" Properties=species:S:1:pos:R:3:spacegroup_kinds:I:1:forces:R:3:stresses:R:6:energies:R:1 spacegroup="P m n 21" unit_cell=conventional occupancy="_JSON {\"0\": {\"Li\": 1.0}, \"1\": {\"Li\": 1.0}, \"2\": {\"P\": 1.0}, \"3\": {\"S\": 0.97}, \"4\": {\"S\": 0.98}, \"5\": {\"S\": 0.99}}" energy=-104.57664681670019 stress="0.015612553355217827 -0.00019990293551112488 1.3528886696661477e-06 -0.00019990293551112488 0.045789841073594205 2.64206395970686e-07 1.3528886696661477e-06 2.64206395970686e-07 0.01943881278436551" free_energy=-104.57664681670019 pbc="T T T"
Li       2.03185596       4.25068164      43.42877810        1       0.00227750       0.00187734      -0.11295720       0.00002351       0.00001183       0.00002429       0.00000078      -0.00000021      -0.00000061      -0.04983314
Li       2.03185596       4.25068164      39.10339282        1       0.00227750       0.00188093      -0.11296325       0.00002351       0.00001183       0.00002429       0.00000078      -0.00000021      -0.00000061      -0.04983191
Li       2.03185596       4.25068164      34.77800754        1       0.00227750       0.00188093      -0.11296325       0.00002351       0.00001183       0.00002429       0.00000078      -0.00000021      -0.00000061      -0.04983191
Li       2.03185596       4.25068164      30.45262226        1       0.00227750       0.00188093      -0.11296325       0.00002351       0.00001183       0.00002429       0.00000078      -0.00000021      -0.00000061      -0.04983191
Li       2.03185596       4.25068164      26.12723698        1       0.00227750       0.00188093      -0.11296325       0.00002351       0.00001183       0.00002429       0.00000078      -0.00000021      -0.00000061      -0.04983191
Li       2.03185596       4.25068164      21.80185171        1       0.00227750       0.00188093      -0.11296325       0.00002351       0.00001183       0.00002429       0.00000078      -0.00000021      -0.00000061      -0.04983191
Li       2.03185596       4.25068164      17.47646643        1       0.00227750       0.00188093      -0.11296325       0.00002351       0.00001183       0.00002429       0.00000078      -0.00000021      -0.00000061      -0.04983191
Li       2.03185596       4.25069073      13.15116223        1      -0.00375668       0.00310192       0.01534218       0.00000865       0.00000890       0.00000935      -0.00000107       0.00000033      -0.00000019      -0.02012409
Li       3.97133066      10.58654461      46.53891316        0      -0.01815971       0.05031514       0.01413496       0.00000908       0.00001469       0.00001119       0.00000531       0.00000105       0.00000090      -0.02948958
Li       4.03317083       7.66855280      42.21768800        0      -0.68554818      -2.08144702      -0.10005042       0.00004531       0.00023724       0.00000868       0.00000369       0.00000153       0.00006134      -0.45511942
Li       5.91432188      13.41565221      45.32362681        1      -0.00375677       0.00310192      -0.01534217       0.00000865       0.00000890       0.00000935       0.00000107      -0.00000033      -0.00000019      -0.02012409
Li       2.03185596      10.46928896      43.42877810        1       0.00227750       0.00187734      -0.11295720       0.00002351       0.00001183       0.00002429       0.00000078      -0.00000021      -0.00000061      -0.04983314
Li       3.91300623      10.78289984      42.20941272        0       0.63408220      -2.04222181       0.09910573       0.00004544       0.00023547       0.00000888      -0.00000319       0.00000165      -0.00005987      -0.41988434
Li       4.03317083       7.66855280      37.89230272        0      -0.68554818      -2.08144702      -0.10005042       0.00004531       0.00023724       0.00000868       0.00000369       0.00000153       0.00006134      -0.45511942
Li       5.91432188      13.41564313      40.99832262        1       0.00227721       0.00188093       0.11296324       0.00002351       0.00001183       0.00002429      -0.00000078       0.00000021      -0.00000061      -0.04983191
Li       2.03185596      10.46928896      39.10339282        1       0.00227750       0.00188093      -0.11296325       0.00002351       0.00001183       0.00002429       0.00000078      -0.00000021      -0.00000061      -0.04983191
Li       3.91300623      10.78289984      37.88402744        0       0.63408220      -2.04222181       0.09910573       0.00004544       0.00023547       0.00000888      -0.00000319       0.00000165      -0.00005987      -0.41988434
Li       4.03317083       7.66855280      33.56691744        0      -0.68554818      -2.08144702      -0.10005042       0.00004531       0.00023724       0.00000868       0.00000369       0.00000153       0.00006134      -0.45511942
Li       5.91432188      13.41564313      36.67293734        1       0.00227721       0.00188093       0.11296324       0.00002351       0.00001183       0.00002429      -0.00000078       0.00000021      -0.00000061      -0.04983191
Li       2.03185596      10.46928896      34.77800754        1       0.00227750       0.00188093      -0.11296325       0.00002351       0.00001183       0.00002429       0.00000078      -0.00000021      -0.00000061      -0.04983191
Li       3.91300623      10.78289984      33.55864216        0       0.63408220      -2.04222181       0.09910573       0.00004544       0.00023547       0.00000888      -0.00000319       0.00000165      -0.00005987      -0.41988434
Li       4.03317083       7.66855280      29.24153216        0      -0.68554818      -2.08144702      -0.10005042       0.00004531       0.00023724       0.00000868       0.00000369       0.00000153       0.00006134      -0.45511942
Li       5.91432188      13.41564313      32.34755206        1       0.00227721       0.00188093       0.11296324       0.00002351       0.00001183       0.00002429      -0.00000078       0.00000021      -0.00000061      -0.04983191
Li       2.03185596      10.46928896      30.45262226        1       0.00227750       0.00188093      -0.11296325       0.00002351       0.00001183       0.00002429       0.00000078      -0.00000021      -0.00000061      -0.04983191
Li       3.91300623      10.78289984      29.23325688        0       0.63408220      -2.04222181       0.09910573       0.00004544       0.00023547       0.00000888      -0.00000319       0.00000165      -0.00005987      -0.41988434
Li       4.03317083       7.66855280      24.91614688        0      -0.68554818      -2.08144702      -0.10005042       0.00004531       0.00023724       0.00000868       0.00000369       0.00000153       0.00006134      -0.45511942
Li       5.91432188      13.41564313      28.02216678        1       0.00227721       0.00188093       0.11296324       0.00002351       0.00001183       0.00002429      -0.00000078       0.00000021      -0.00000061      -0.04983191
Li       2.03185596      10.46928896      26.12723698        1       0.00227750       0.00188093      -0.11296325       0.00002351       0.00001183       0.00002429       0.00000078      -0.00000021      -0.00000061      -0.04983191
Li       3.91300623      10.78289984      24.90787160        0       0.63408220      -2.04222181       0.09910573       0.00004544       0.00023547       0.00000888      -0.00000319       0.00000165      -0.00005987      -0.41988434
Li       4.03317083       7.66855280      20.59076161        0      -0.68554818      -2.08144702      -0.10005042       0.00004531       0.00023724       0.00000868       0.00000369       0.00000153       0.00006134      -0.45511942
Li       5.91432188      13.41564313      23.69678150        1       0.00227721       0.00188093       0.11296324       0.00002351       0.00001183       0.00002429      -0.00000078       0.00000021      -0.00000061      -0.04983191
Li       2.03185596      10.46928896      21.80185171        1       0.00227750       0.00188093      -0.11296325       0.00002351       0.00001183       0.00002429       0.00000078      -0.00000021      -0.00000061      -0.04983191
Li       3.91300623      10.78289984      20.58248632        0       0.63408220      -2.04222181       0.09910573       0.00004544       0.00023547       0.00000888      -0.00000319       0.00000165      -0.00005987      -0.41988434
Li       4.03317083       7.66855280      16.26537633        0      -0.68554818      -2.08144702      -0.10005042       0.00004531       0.00023724       0.00000868       0.00000369       0.00000153       0.00006134      -0.45511942
Li       5.91432188      13.41564313      19.37139622        1       0.00227721       0.00188093       0.11296324       0.00002351       0.00001183       0.00002429      -0.00000078       0.00000021      -0.00000061      -0.04983191
Li       2.03185596      10.46928896      17.47646643        1       0.00227750       0.00188093      -0.11296325       0.00002351       0.00001183       0.00002429       0.00000078      -0.00000021      -0.00000061      -0.04983191
Li       3.91300623      10.78289984      16.25710104        0       0.63408220      -2.04222181       0.09910573       0.00004544       0.00023547       0.00000888      -0.00000319       0.00000165      -0.00005987      -0.41988434
Li       3.97484641       7.47709339      11.93587589        0       0.01044972       0.03906889      -0.00311325       0.00000883       0.00001758       0.00000870      -0.00000206      -0.00000078      -0.00000156      -0.02689884
Li       5.91432188      13.41564313      15.04601094        1       0.00227721       0.00187735       0.11295720       0.00002351       0.00001183       0.00002429      -0.00000078       0.00000021      -0.00000061      -0.04983314
Li       2.03185596      10.46929804      13.15116223        1      -0.00375668       0.00310192       0.01534218       0.00000865       0.00000890       0.00000935      -0.00000107       0.00000033      -0.00000019      -0.02012409
Li       7.85731310      16.64205484      46.53891316        0       0.01239482       0.04157579      -0.01082594       0.00001028       0.00001460       0.00000699       0.00000244       0.00000108       0.00000070      -0.02315255
Li       3.97133066      16.80515192      46.53891316        0      -0.02379631       0.03324929      -0.03610185       0.00000897       0.00001375       0.00000300       0.00000253       0.00000013       0.00000059      -0.02154662
Li       4.03317083      13.88716012      42.21768800        0      -0.68554818      -2.08144702      -0.10005042       0.00004531       0.00023724       0.00000868       0.00000369       0.00000153       0.00006134      -0.45511942
Li       5.91432188      19.63425952      45.32362681        1      -0.00375677       0.00310192      -0.01534217       0.00000865       0.00000890       0.00000935       0.00000107      -0.00000033      -0.00000019      -0.02012409
Li       2.03185596      16.68789627      43.42877810        1       0.00227750       0.00187734      -0.11295720       0.00002351       0.00001183       0.00002429       0.00000078      -0.00000021      -0.00000061      -0.04983314
Li       7.91563753      16.83351426      42.20941272        0      -0.68554813      -2.08144693       0.10005028       0.00004531       0.00023724       0.00000868      -0.00000369      -0.00000153       0.00006134      -0.45511935
Li       3.91300623      17.00150716      42.20941272        0       0.63408220      -2.04222181       0.09910573       0.00004544       0.00023547       0.00000888      -0.00000319       0.00000165      -0.00005987      -0.41988434
Li       4.03317083      13.88716012      37.89230272        0      -0.68554818      -2.08144702      -0.10005042       0.00004531       0.00023724       0.00000868       0.00000369       0.00000153       0.00006134      -0.45511942
Li       5.91432188      19.63425044      40.99832262        1       0.00227721       0.00188093       0.11296324       0.00002351       0.00001183       0.00002429      -0.00000078       0.00000021      -0.00000061      -0.04983191
Li       2.03185596      16.68789627      39.10339282        1       0.00227750       0.00188093      -0.11296325       0.00002351       0.00001183       0.00002429       0.00000078      -0.00000021      -0.00000061      -0.04983191
Li       7.91563753      16.83351426      37.88402744        0      -0.68554813      -2.08144693       0.10005028       0.00004531       0.00023724       0.00000868      -0.00000369      -0.00000153       0.00006134      -0.45511935
Li       3.91300623      17.00150716      37.88402744        0       0.63408220      -2.04222181       0.09910573       0.00004544       0.00023547       0.00000888      -0.00000319       0.00000165      -0.00005987      -0.41988434
Li       4.03317083      13.88716012      33.56691744        0      -0.68554818      -2.08144702      -0.10005042       0.00004531       0.00023724       0.00000868       0.00000369       0.00000153       0.00006134      -0.45511942
Li       5.91432188      19.63425044      36.67293734        1       0.00227721       0.00188093       0.11296324       0.00002351       0.00001183       0.00002429      -0.00000078       0.00000021      -0.00000061      -0.04983191
Li       2.03185596      16.68789627      34.77800754        1       0.00227750       0.00188093      -0.11296325       0.00002351       0.00001183       0.00002429       0.00000078      -0.00000021      -0.00000061      -0.04983191
Li       7.91563753      16.83351426      33.55864216        0      -0.68554813      -2.08144693       0.10005028       0.00004531       0.00023724       0.00000868      -0.00000369      -0.00000153       0.00006134      -0.45511935
Li       3.91300623      17.00150716      33.55864216        0       0.63408220      -2.04222181       0.09910573       0.00004544       0.00023547       0.00000888      -0.00000319       0.00000165      -0.00005987      -0.41988434
Li       4.03317083      13.88716012      29.24153216        0      -0.68554818      -2.08144702      -0.10005042       0.00004531       0.00023724       0.00000868       0.00000369       0.00000153       0.00006134      -0.45511942
Li       5.91432188      19.63425044      32.34755206        1       0.00227721       0.00188093       0.11296324       0.00002351       0.00001183       0.00002429      -0.00000078       0.00000021      -0.00000061      -0.04983191
Li       2.03185596      16.68789627      30.45262226        1       0.00227750       0.00188093      -0.11296325       0.00002351       0.00001183       0.00002429       0.00000078      -0.00000021      -0.00000061      -0.04983191
Li       7.91563753      16.83351426      29.23325688        0      -0.68554813      -2.08144693       0.10005028       0.00004531       0.00023724       0.00000868      -0.00000369      -0.00000153       0.00006134      -0.45511935
Li       3.91300623      17.00150716      29.23325688        0       0.63408220      -2.04222181       0.09910573       0.00004544       0.00023547       0.00000888      -0.00000319       0.00000165      -0.00005987      -0.41988434
Li       4.03317083      13.88716012      24.91614688        0      -0.68554818      -2.08144702      -0.10005042       0.00004531       0.00023724       0.00000868       0.00000369       0.00000153       0.00006134      -0.45511942
Li       5.91432188      19.63425044      28.02216678        1       0.00227721       0.00188093       0.11296324       0.00002351       0.00001183       0.00002429      -0.00000078       0.00000021      -0.00000061      -0.04983191
Li       2.03185596      16.68789627      26.12723698        1       0.00227750       0.00188093      -0.11296325       0.00002351       0.00001183       0.00002429       0.00000078      -0.00000021      -0.00000061      -0.04983191
Li       7.91563753      16.83351426      24.90787160        0      -0.68554813      -2.08144693       0.10005028       0.00004531       0.00023724       0.00000868      -0.00000369      -0.00000153       0.00006134      -0.45511935
Li       3.91300623      17.00150716      24.90787160        0       0.63408220      -2.04222181       0.09910573       0.00004544       0.00023547       0.00000888      -0.00000319       0.00000165      -0.00005987      -0.41988434
Li       4.03317083      13.88716012      20.59076161        0      -0.68554818      -2.08144702      -0.10005042       0.00004531       0.00023724       0.00000868       0.00000369       0.00000153       0.00006134      -0.45511942
Li       5.91432188      19.63425044      23.69678150        1       0.00227721       0.00188093       0.11296324       0.00002351       0.00001183       0.00002429      -0.00000078       0.00000021      -0.00000061      -0.04983191
Li       2.03185596      16.68789627      21.80185171        1       0.00227750       0.00188093      -0.11296325       0.00002351       0.00001183       0.00002429       0.00000078      -0.00000021      -0.00000061      -0.04983191
Li       7.91563753      16.83351426      20.58248632        0      -0.68554813      -2.08144693       0.10005028       0.00004531       0.00023724       0.00000868      -0.00000369      -0.00000153       0.00006134      -0.45511935
Li       3.91300623      17.00150716      20.58248632        0       0.63408220      -2.04222181       0.09910573       0.00004544       0.00023547       0.00000888      -0.00000319       0.00000165      -0.00005987      -0.41988434
Li       4.03317083      13.88716012      16.26537633        0      -0.68554818      -2.08144702      -0.10005042       0.00004531       0.00023724       0.00000868       0.00000369       0.00000153       0.00006134      -0.45511942
Li       5.91432188      19.63425044      19.37139622        1       0.00227721       0.00188093       0.11296324       0.00002351       0.00001183       0.00002429      -0.00000078       0.00000021      -0.00000061      -0.04983191
Li       2.03185596      16.68789627      17.47646643        1       0.00227750       0.00188093      -0.11296325       0.00002351       0.00001183       0.00002429       0.00000078      -0.00000021      -0.00000061      -0.04983191
Li       7.91563753      16.83351426      16.25710104        0      -0.68554813      -2.08144693       0.10005028       0.00004531       0.00023724       0.00000868      -0.00000369      -0.00000153       0.00006134      -0.45511935
Li       3.91300623      17.00150716      16.25710104        0       0.63408220      -2.04222181       0.09910573       0.00004544       0.00023547       0.00000888      -0.00000319       0.00000165      -0.00005987      -0.41988434
Li       3.97484641      13.69570070      11.93587589        0       0.03887977       0.03946324      -0.01156710       0.00001071       0.00001422       0.00000995      -0.00000212      -0.00000499      -0.00000030      -0.02940574
Li       5.91432188      19.63425044      15.04601094        1       0.00227721       0.00187735       0.11295720       0.00002351       0.00001183       0.00002429      -0.00000078       0.00000021      -0.00000061      -0.04983314
Li       2.03185596      16.68790535      13.15116223        1      -0.00375668       0.00310192       0.01534218       0.00000865       0.00000890       0.00000935      -0.00000107       0.00000033      -0.00000019      -0.02012409
Li       7.85731310      22.86066216      46.53891316        0      -0.00031385       0.04967816      -0.01024329       0.00000914       0.00001475       0.00000708       0.00000376      -0.00000099      -0.00000087      -0.02485227
Li       3.97133066      23.02375923      46.53891316        0      -0.03207619       0.01723721       0.01110666       0.00000921       0.00001463       0.00001070      -0.00000008      -0.00000122       0.00000105      -0.02900159
Li       7.79547292      19.94786130      42.21768800        0       0.63408219      -2.04222172      -0.09910560       0.00004544       0.00023547       0.00000888       0.00000319      -0.00000165      -0.00005987      -0.41988427
Li       4.03317083      20.10576743      42.21768800        0      -0.68554818      -2.08144702      -0.10005042       0.00004531       0.00023724       0.00000868       0.00000369       0.00000153       0.00006134      -0.45511942
Li       5.91432188      25.85286684      45.32362681        1      -0.00375677       0.00310192      -0.01534217       0.00000865       0.00000890       0.00000935       0.00000107      -0.00000033      -0.00000019      -0.02012409
Li       7.91563753      23.05212157      42.20941272        0      -0.68554813      -2.08144693       0.10005028       0.00004531       0.00023724       0.00000868      -0.00000369      -0.00000153       0.00006134      -0.45511935
Li       3.91300623      23.22011447      42.20941272        0       0.63408220      -2.04222181       0.09910573       0.00004544       0.00023547       0.00000888      -0.00000319       0.00000165      -0.00005987      -0.41988434
Li       7.79547292      19.94786130      37.89230272        0       0.63408219      -2.04222172      -0.09910560       0.00004544       0.00023547       0.00000888       0.00000319      -0.00000165      -0.00005987      -0.41988427
Li       4.03317083      20.10576743      37.89230272        0      -0.68554818      -2.08144702      -0.10005042       0.00004531       0.00023724       0.00000868       0.00000369       0.00000153       0.00006134      -0.45511942
Li       5.91432188      25.85285776      40.99832262        1       0.00227721       0.00188093       0.11296324       0.00002351       0.00001183       0.00002429      -0.00000078       0.00000021      -0.00000061      -0.04983191
Li       7.91563753      23.05212157      37.88402744        0      -0.68554813      -2.08144693       0.10005028       0.00004531       0.00023724       0.00000868      -0.00000369      -0.00000153       0.00006134      -0.45511935
Li       3.91300623      23.22011447      37.88402744        0       0.63408220      -2.04222181       0.09910573       0.00004544       0.00023547       0.00000888      -0.00000319       0.00000165      -0.00005987      -0.41988434
Li       7.79547292      19.94786130      33.56691744        0       0.63408219      -2.04222172      -0.09910560       0.00004544       0.00023547       0.00000888       0.00000319      -0.00000165      -0.00005987      -0.41988427
Li       4.03317083      20.10576743      33.56691744        0      -0.68554818      -2.08144702      -0.10005042       0.00004531       0.00023724       0.00000868       0.00000369       0.00000153       0.00006134      -0.45511942
Li       5.91432188      25.85285776      36.67293734        1       0.00227721       0.00188093       0.11296324       0.00002351       0.00001183       0.00002429      -0.00000078       0.00000021      -0.00000061      -0.04983191
Li       7.91563753      23.05212157      33.55864216        0      -0.68554813      -2.08144693       0.10005028       0.00004531       0.00023724       0.00000868      -0.00000369      -0.00000153       0.00006134      -0.45511935
Li       3.91300623      23.22011447      33.55864216        0       0.63408220      -2.04222181       0.09910573       0.00004544       0.00023547       0.00000888      -0.00000319       0.00000165      -0.00005987      -0.41988434
Li       7.79547292      19.94786130      29.24153216        0       0.63408219      -2.04222172      -0.09910560       0.00004544       0.00023547       0.00000888       0.00000319      -0.00000165      -0.00005987      -0.41988427
Li       4.03317083      20.10576743      29.24153216        0      -0.68554818      -2.08144702      -0.10005042       0.00004531       0.00023724       0.00000868       0.00000369       0.00000153       0.00006134      -0.45511942
Li       5.91432188      25.85285776      32.34755206        1       0.00227721       0.00188093       0.11296324       0.00002351       0.00001183       0.00002429      -0.00000078       0.00000021      -0.00000061      -0.04983191
Li       7.91563753      23.05212157      29.23325688        0      -0.68554813      -2.08144693       0.10005028       0.00004531       0.00023724       0.00000868      -0.00000369      -0.00000153       0.00006134      -0.45511935
Li       3.91300623      23.22011447      29.23325688        0       0.63408220      -2.04222181       0.09910573       0.00004544       0.00023547       0.00000888      -0.00000319       0.00000165      -0.00005987      -0.41988434
Li       7.79547292      19.94786130      24.91614688        0       0.63408219      -2.04222172      -0.09910560       0.00004544       0.00023547       0.00000888       0.00000319      -0.00000165      -0.00005987      -0.41988427
Li       4.03317083      20.10576743      24.91614688        0      -0.68554818      -2.08144702      -0.10005042       0.00004531       0.00023724       0.00000868       0.00000369       0.00000153       0.00006134      -0.45511942
Li       5.91432188      25.85285776      28.02216678        1       0.00227721       0.00188093       0.11296324       0.00002351       0.00001183       0.00002429      -0.00000078       0.00000021      -0.00000061      -0.04983191
Li       7.91563753      23.05212157      24.90787160        0      -0.68554813      -2.08144693       0.10005028       0.00004531       0.00023724       0.00000868      -0.00000369      -0.00000153       0.00006134      -0.45511935
Li       3.91300623      23.22011447      24.90787160        0       0.63408220      -2.04222181       0.09910573       0.00004544       0.00023547       0.00000888      -0.00000319       0.00000165      -0.00005987      -0.41988434
Li       7.79547292      19.94786130      20.59076161        0       0.63408219      -2.04222172      -0.09910560       0.00004544       0.00023547       0.00000888       0.00000319      -0.00000165      -0.00005987      -0.41988427
Li       4.03317083      20.10576743      20.59076161        0      -0.68554818      -2.08144702      -0.10005042       0.00004531       0.00023724       0.00000868       0.00000369       0.00000153       0.00006134      -0.45511942
Li       5.91432188      25.85285776      23.69678150        1       0.00227721       0.00188093       0.11296324       0.00002351       0.00001183       0.00002429      -0.00000078       0.00000021      -0.00000061      -0.04983191
Li       7.91563753      23.05212157      20.58248632        0      -0.68554813      -2.08144693       0.10005028       0.00004531       0.00023724       0.00000868      -0.00000369      -0.00000153       0.00006134      -0.45511935
Li       3.91300623      23.22011447      20.58248632        0       0.63408220      -2.04222181       0.09910573       0.00004544       0.00023547       0.00000888      -0.00000319       0.00000165      -0.00005987      -0.41988434
Li       7.79547292      19.94786130      16.26537633        0       0.63408219      -2.04222172      -0.09910560       0.00004544       0.00023547       0.00000888       0.00000319      -0.00000165      -0.00005987      -0.41988427
Li       4.03317083      20.10576743      16.26537633        0      -0.68554818      -2.08144702      -0.10005042       0.00004531       0.00023724       0.00000868       0.00000369       0.00000153       0.00006134      -0.45511942
Li       5.91432188      25.85285776      19.37139622        1       0.00227721       0.00188093       0.11296324       0.00002351       0.00001183       0.00002429      -0.00000078       0.00000021      -0.00000061      -0.04983191
Li       7.91563753      23.05212157      16.25710104        0      -0.68554813      -2.08144693       0.10005028       0.00004531       0.00023724       0.00000868      -0.00000369      -0.00000153       0.00006134      -0.45511935
Li       3.91300623      23.22011447      16.25710104        0       0.63408220      -2.04222181       0.09910573       0.00004544       0.00023547       0.00000888      -0.00000319       0.00000165      -0.00005987      -0.41988434
Li       7.85379735      19.75150606      11.93587589        0      -0.03076335       0.01843662       0.01623145       0.00000934       0.00001539       0.00000595      -0.00000033       0.00000091       0.00000136      -0.02451662
Li       3.97484641      19.91430802      11.93587589        0      -0.01278181       0.04164397      -0.00087654       0.00001064       0.00001422       0.00000837      -0.00000244       0.00000267      -0.00000029      -0.02747700
Li       5.91432188      25.85285776      15.04601094        1       0.00227721       0.00187735       0.11295720       0.00002351       0.00001183       0.00002429      -0.00000078       0.00000021      -0.00000061      -0.04983314
Li       7.85731310      29.07926947      46.53891316        0       0.02288994       0.02999154      -0.00554262       0.00000903       0.00001485       0.00000785       0.00000056       0.00000279      -0.00000088      -0.02572819
Li       7.79547292      26.16646861      42.21768800        0       0.63408219      -2.04222172      -0.09910560       0.00004544       0.00023547       0.00000888       0.00000319      -0.00000165      -0.00005987      -0.41988427
Li       7.91563753      29.27072888      42.20941272        0      -0.68554813      -2.08144693       0.10005028       0.00004531       0.00023724       0.00000868      -0.00000369      -0.00000153       0.00006134      -0.45511935
Li       7.79547292      26.16646861      37.89230272        0       0.63408219      -2.04222172      -0.09910560       0.00004544       0.00023547       0.00000888       0.00000319      -0.00000165      -0.00005987      -0.41988427
Li       7.91563753      29.27072888      37.88402744        0      -0.68554813      -2.08144693       0.10005028       0.00004531       0.00023724       0.00000868      -0.00000369      -0.00000153       0.00006134      -0.45511935