504
Lattice="-4.166030694342068e-16 18.6558219398172 0.0 7.764933388889874 18.32992290740971 0.0 0.0 0.0 42.300661428115106" Properties=species:S:1:pos:R:3:spacegroup_kinds:I:1:forces:R:3:stresses:R:6:energies:R:1 spacegroup="P m n 21" unit_cell=conventional occupancy="_JSON {\"0\": {\"Li\": 1.0}, \"1\": {\"Li\": 1.0}, \"2\": {\"P\": 1.0}, \"3\": {\"S\": 0.97}, \"4\": {\"S\": 0.98}, \"5\": {\"S\": 0.99}}" energy=2871.465052831273 stress="-2.48014594299287 1.9590546214149296 1.9152363419741962 1.9590546214149296 -1.6318710094822209 -1.5513702950244947 1.9152363419741962 -1.5513702950244947 -1.854990724790781" free_energy=2871.465052831273 pbc="T T T"
Li       2.31253233       4.21002730      38.69052637        1       0.00227750       0.00187734      -0.11295720       0.00002649       0.00001333       0.00002737       0.00000088      -0.00000023      -0.00000069      -0.04983314
Li       2.31253233       4.21002730      34.36514109        1       0.00227750       0.00188093      -0.11296325       0.00002649       0.00001333       0.00002737       0.00000088      -0.00000023      -0.00000069      -0.04983191
Li       2.31253233       4.21002730      30.03975582        1       0.00227750       0.00188093      -0.11296325       0.00002649       0.00001333       0.00002737       0.00000088      -0.00000023      -0.00000069      -0.04983191
Li       2.31253233       4.21002730      25.71437054        1       0.00227750       0.00188093      -0.11296325       0.00002649       0.00001333       0.00002737       0.00000088      -0.00000023      -0.00000069      -0.04983191
Li       2.31253233       4.21002730      21.38898526        1       0.00227750       0.00188093      -0.11296325       0.00002649       0.00001333       0.00002737       0.00000088      -0.00000023      -0.00000069      -0.04983191
Li       2.31253233       4.21002730      17.06359998        1       0.00227750       0.00188093      -0.11296325       0.00002649       0.00001333       0.00002737       0.00000088      -0.00000023      -0.00000069      -0.04983191
Li       2.31253233       4.21002730      12.73821470        1       0.00227750       0.00188093      -0.11296325       0.00002649       0.00001333       0.00002737       0.00000088      -0.00000023      -0.00000069      -0.04983191
Li       2.31253233       4.21003638       8.41291050        1      -1.31874416       0.81177494      -0.45915522       0.00024956       0.00007171       0.00017559       0.00001532      -0.00005498      -0.00010525      -0.52814166
Li       4.25200702      10.54589026      41.80066143        0      -0.05914693       0.98402616       0.89212273       0.00001162       0.00010393       0.00008076       0.00008106      -0.00000277      -0.00000572      -0.20486793
Li       4.31384720       7.62789846      37.47943627        0      -0.68554818      -2.08144702      -0.10005042       0.00005106       0.00026732       0.00000978       0.00000416       0.00000173       0.00006912      -0.45511942
Li       6.19499824      13.37499787      40.58537509        1       0.01218281      -0.00130056       0.01314573       0.00001136       0.00001015       0.00001569       0.00000040       0.00000251      -0.00000066      -0.02444054
Li       2.31253233      10.42863461      38.69052637        1       0.00227750       0.00187734      -0.11295720       0.00002649       0.00001333       0.00002737       0.00000088      -0.00000023      -0.00000069      -0.04983314
Li       4.19368260      10.74224550      37.47116099        0       0.63408220      -2.04222181       0.09910573       0.00005120       0.00026533       0.00001001      -0.00000360       0.00000186      -0.00006746      -0.41988434
Li       4.31384720       7.62789846      33.15405099        0      -0.68554818      -2.08144702      -0.10005042       0.00005106       0.00026732       0.00000978       0.00000416       0.00000173       0.00006912      -0.45511942
Li       6.19499824      13.37498879      36.26007089        1       0.00227721       0.00188093       0.11296324       0.00002649       0.00001333       0.00002737      -0.00000088       0.00000023      -0.00000069      -0.04983191
Li       2.31253233      10.42863461      34.36514109        1       0.00227750       0.00188093      -0.11296325       0.00002649       0.00001333       0.00002737       0.00000088      -0.00000023      -0.00000069      -0.04983191
Li       4.19368260      10.74224550      33.14577571        0       0.63408220      -2.04222181       0.09910573       0.00005120       0.00026533       0.00001001      -0.00000360       0.00000186      -0.00006746      -0.41988434
Li       4.31384720       7.62789846      28.82866572        0      -0.68554818      -2.08144702      -0.10005042       0.00005106       0.00026732       0.00000978       0.00000416       0.00000173       0.00006912      -0.45511942
Li       6.19499824      13.37498879      31.93468561        1       0.00227721       0.00188093       0.11296324       0.00002649       0.00001333       0.00002737      -0.00000088       0.00000023      -0.00000069      -0.04983191
Li       2.31253233      10.42863461      30.03975582        1       0.00227750       0.00188093      -0.11296325       0.00002649       0.00001333       0.00002737       0.00000088      -0.00000023      -0.00000069      -0.04983191
Li       4.19368260      10.74224550      28.82039043        0       0.63408220      -2.04222181       0.09910573       0.00005120       0.00026533       0.00001001      -0.00000360       0.00000186      -0.00006746      -0.41988434
Li       4.31384720       7.62789846      24.50328044        0      -0.68554818      -2.08144702      -0.10005042       0.00005106       0.00026732       0.00000978       0.00000416       0.00000173       0.00006912      -0.45511942
Li       6.19499824      13.37498879      27.60930033        1       0.00227721       0.00188093       0.11296324       0.00002649       0.00001333       0.00002737      -0.00000088       0.00000023      -0.00000069      -0.04983191
Li       2.31253233      10.42863461      25.71437054        1       0.00227750       0.00188093      -0.11296325       0.00002649       0.00001333       0.00002737       0.00000088      -0.00000023      -0.00000069      -0.04983191
Li       4.19368260      10.74224550      24.49500515        0       0.63408220      -2.04222181       0.09910573       0.00005120       0.00026533       0.00001001      -0.00000360       0.00000186      -0.00006746      -0.41988434
Li       4.31384720       7.62789846      20.17789516        0      -0.68554818      -2.08144702      -0.10005042       0.00005106       0.00026732       0.00000978       0.00000416       0.00000173       0.00006912      -0.45511942
Li       6.19499824      13.37498879      23.28391505        1       0.00227721       0.00188093       0.11296324       0.00002649       0.00001333       0.00002737      -0.00000088       0.00000023      -0.00000069      -0.04983191
Li       2.31253233      10.42863461      21.38898526        1       0.00227750       0.00188093      -0.11296325       0.00002649       0.00001333       0.00002737       0.00000088      -0.00000023      -0.00000069      -0.04983191
Li       4.19368260      10.74224550      20.16961987        0       0.63408220      -2.04222181       0.09910573       0.00005120       0.00026533       0.00001001      -0.00000360       0.00000186      -0.00006746      -0.41988434
Li       4.31384720       7.62789846      15.85250988        0      -0.68554818      -2.08144702      -0.10005042       0.00005106       0.00026732       0.00000978       0.00000416       0.00000173       0.00006912      -0.45511942
Li       6.19499824      13.37498879      18.95852977        1       0.00227721       0.00188093       0.11296324       0.00002649       0.00001333       0.00002737      -0.00000088       0.00000023      -0.00000069      -0.04983191
Li       2.31253233      10.42863461      17.06359998        1       0.00227750       0.00188093      -0.11296325       0.00002649       0.00001333       0.00002737       0.00000088      -0.00000023      -0.00000069      -0.04983191
Li       4.19368260      10.74224550      15.84423459        0       0.63408220      -2.04222181       0.09910573       0.00005120       0.00026533       0.00001001      -0.00000360       0.00000186      -0.00006746      -0.41988434
Li       4.31384720       7.62789846      11.52712460        0      -0.68382047      -2.09360191      -0.11878773       0.00005108       0.00026878       0.00001324       0.00000641       0.00000141       0.00006891      -0.45744645
Li       6.19499824      13.37498879      14.63314449        1       0.00227721       0.00188093       0.11296324       0.00002649       0.00001333       0.00002737      -0.00000088       0.00000023      -0.00000069      -0.04983191
Li       2.31253233      10.42863461      12.73821470        1       0.00227750       0.00188093      -0.11296325       0.00002649       0.00001333       0.00002737       0.00000088      -0.00000023      -0.00000069      -0.04983191
Li       4.19368260      10.74224550      11.51884931        0       0.62855325      -2.05035433       0.08618138       0.00005163       0.00026627       0.00001239      -0.00000210       0.00000288      -0.00006682      -0.42098889
Li       4.25552277       7.43643905       7.19762416        0       0.80285704      -1.46595491       0.44776673       0.00011301       0.00029287       0.00006043      -0.00003294       0.00001225      -0.00000046      -0.50613255
Li       6.19499824      13.37498879      10.30775921        1      -0.60851737       0.30378990      -0.51698545       0.00007775       0.00003016       0.00008109      -0.00002662       0.00005232      -0.00002749      -0.17861206
Li       2.31253233      10.42864369       8.41291050        1       0.08161027      -0.68747398      -0.36721328       0.00012497       0.00010615       0.00008841       0.00000272       0.00004056      -0.00004671      -0.30969971
Li       8.13798947      16.60140050      41.80066143        0       0.12107025       0.17192249       0.14137956       0.00003808       0.00002844       0.00001783       0.00001330       0.00000996       0.00001662      -0.07369600
Li       4.25200702      16.76449757      41.80066143        0       0.03975479       0.00356644       0.03974755       0.00002405       0.00002337       0.00001209       0.00000070       0.00000498       0.00000018      -0.04194173
Li       4.31384720      13.84650577      37.47943627        0      -0.68554818      -2.08144702      -0.10005042       0.00005106       0.00026732       0.00000978       0.00000416       0.00000173       0.00006912      -0.45511942
Li       6.19499824      19.59360518      40.58537509        1      -0.01896535       0.00046667       0.00963636       0.00001142       0.00001008       0.00001506       0.00000072      -0.00000312       0.00000007      -0.02377694
Li       2.31253233      16.64724193      38.69052637        1       0.00227750       0.00187734      -0.11295720       0.00002649       0.00001333       0.00002737       0.00000088      -0.00000023      -0.00000069      -0.04983314
Li       8.19631389      16.79285991      37.47116099        0      -0.68554813      -2.08144693       0.10005028       0.00005106       0.00026732       0.00000978      -0.00000416      -0.00000173       0.00006912      -0.45511935
Li       4.19368260      16.96085281      37.47116099        0       0.63408220      -2.04222181       0.09910573       0.00005120       0.00026533       0.00001001      -0.00000360       0.00000186      -0.00006746      -0.41988434
Li       4.31384720      13.84650577      33.15405099        0      -0.68554818      -2.08144702      -0.10005042       0.00005106       0.00026732       0.00000978       0.00000416       0.00000173       0.00006912      -0.45511942
Li       6.19499824      19.59359610      36.26007089        1       0.00227721       0.00188093       0.11296324       0.00002649       0.00001333       0.00002737      -0.00000088       0.00000023      -0.00000069      -0.04983191
Li       2.31253233      16.64724193      34.36514109        1       0.00227750       0.00188093      -0.11296325       0.00002649       0.00001333       0.00002737       0.00000088      -0.00000023      -0.00000069      -0.04983191
Li       8.19631389      16.79285991      33.14577571        0      -0.68554813      -2.08144693       0.10005028       0.00005106       0.00026732       0.00000978      -0.00000416      -0.00000173       0.00006912      -0.45511935
Li       4.19368260      16.96085281      33.14577571        0       0.63408220      -2.04222181       0.09910573       0.00005120       0.00026533       0.00001001      -0.00000360       0.00000186      -0.00006746      -0.41988434
Li       4.31384720      13.84650577      28.82866572        0      -0.68554818      -2.08144702      -0.10005042       0.00005106       0.00026732       0.00000978       0.00000416       0.00000173       0.00006912      -0.45511942
Li       6.19499824      19.59359610      31.93468561        1       0.00227721       0.00188093       0.11296324       0.00002649       0.00001333       0.00002737      -0.00000088       0.00000023      -0.00000069      -0.04983191
Li       2.31253233      16.64724193      30.03975582        1       0.00227750       0.00188093      -0.11296325       0.00002649       0.00001333       0.00002737       0.00000088      -0.00000023      -0.00000069      -0.04983191
Li       8.19631389      16.79285991      28.82039043        0      -0.68554813      -2.08144693       0.10005028       0.00005106       0.00026732       0.00000978      -0.00000416      -0.00000173       0.00006912      -0.45511935
Li       4.19368260      16.96085281      28.82039043        0       0.63408220      -2.04222181       0.09910573       0.00005120       0.00026533       0.00001001      -0.00000360       0.00000186      -0.00006746      -0.41988434
Li       4.31384720      13.84650577      24.50328044        0      -0.68554818      -2.08144702      -0.10005042       0.00005106       0.00026732       0.00000978       0.00000416       0.00000173       0.00006912      -0.45511942
Li       6.19499824      19.59359610      27.60930033        1       0.00227721       0.00188093       0.11296324       0.00002649       0.00001333       0.00002737      -0.00000088       0.00000023      -0.00000069      -0.04983191
Li       2.31253233      16.64724193      25.71437054        1       0.00227750       0.00188093      -0.11296325       0.00002649       0.00001333       0.00002737       0.00000088      -0.00000023      -0.00000069      -0.04983191
Li       8.19631389      16.79285991      24.49500515        0      -0.68554813      -2.08144693       0.10005028       0.00005106       0.00026732       0.00000978      -0.00000416      -0.00000173       0.00006912      -0.45511935
Li       4.19368260      16.96085281      24.49500515        0       0.63408220      -2.04222181       0.09910573       0.00005120       0.00026533       0.00001001      -0.00000360       0.00000186      -0.00006746      -0.41988434
Li       4.31384720      13.84650577      20.17789516        0      -0.68554818      -2.08144702      -0.10005042       0.00005106       0.00026732       0.00000978       0.00000416       0.00000173       0.00006912      -0.45511942
Li       6.19499824      19.59359610      23.28391505        1       0.00227721       0.00188093       0.11296324       0.00002649       0.00001333       0.00002737      -0.00000088       0.00000023      -0.00000069      -0.04983191
Li       2.31253233      16.64724193      21.38898526        1       0.00227750       0.00188093      -0.11296325       0.00002649       0.00001333       0.00002737       0.00000088      -0.00000023      -0.00000069      -0.04983191
Li       8.19631389      16.79285991      20.16961987        0      -0.68554813      -2.08144693       0.10005028       0.00005106       0.00026732       0.00000978      -0.00000416      -0.00000173       0.00006912      -0.45511935
Li       4.19368260      16.96085281      20.16961987        0       0.63408220      -2.04222181       0.09910573       0.00005120       0.00026533       0.00001001      -0.00000360       0.00000186      -0.00006746      -0.41988434
Li       4.31384720      13.84650577      15.85250988        0      -0.68554818      -2.08144702      -0.10005042       0.00005106       0.00026732       0.00000978       0.00000416       0.00000173       0.00006912      -0.45511942
Li       6.19499824      19.59359610      18.95852977        1       0.00227721       0.00188093       0.11296324       0.00002649       0.00001333       0.00002737      -0.00000088       0.00000023      -0.00000069      -0.04983191
Li       2.31253233      16.64724193      17.06359998        1       0.00227750       0.00188093      -0.11296325       0.00002649       0.00001333       0.00002737       0.00000088      -0.00000023      -0.00000069      -0.04983191
Li       8.19631389      16.79285991      15.84423459        0      -0.68554813      -2.08144693       0.10005028       0.00005106       0.00026732       0.00000978      -0.00000416      -0.00000173       0.00006912      -0.45511935
Li       4.19368260      16.96085281      15.84423459        0       0.63408220      -2.04222181       0.09910573       0.00005120       0.00026533       0.00001001      -0.00000360       0.00000186      -0.00006746      -0.41988434
Li       4.31384720      13.84650577      11.52712460        0      -0.66834663      -2.08027079      -0.14556226       0.00005226       0.00026733       0.00001819       0.00000394      -0.00000145       0.00006920      -0.46224990
Li       6.19499824      19.59359610      14.63314449        1       0.00227721       0.00188093       0.11296324       0.00002649       0.00001333       0.00002737      -0.00000088       0.00000023      -0.00000069      -0.04983191
Li       2.31253233      16.64724193      12.73821470        1       0.00227750       0.00188093      -0.11296325       0.00002649       0.00001333       0.00002737       0.00000088      -0.00000023      -0.00000069      -0.04983191
Li       8.19631389      16.79285991      11.51884931        0      -0.68378484      -2.09385220       0.08099689       0.00005109       0.00026881       0.00001329      -0.00000188      -0.00000205       0.00006891      -0.45752456
Li       4.19368260      16.96085281      11.51884931        0       0.62381454      -2.03874244       0.02628259       0.00005146       0.00026536       0.00002341      -0.00000424       0.00000375      -0.00006755      -0.43124085
Li       4.25552277      13.65504636       7.19762416        0     -22.40537230      -5.89333790      -8.01272808      -0.00159013      -0.00004983      -0.00012467      -0.00016493      -0.00060436      -0.00047697      -0.19158654
Li       6.19499824      19.59359610      10.30775921        1       0.20007077      -0.19454297      -0.15186376       0.00004233       0.00004513       0.00004996       0.00001587      -0.00001663      -0.00002113      -0.11818193
Li       2.31253233      16.64725101       8.41291050        1       0.18952347       0.30907645      -0.27526047       0.00011643       0.00007620       0.00006093      -0.00002089       0.00001335       0.00000810      -0.23781728
Li       8.13798947      22.82000781      41.80066143        0      -0.09960674       0.06825690       0.09459493       0.00002210       0.00003591       0.00001583       0.00000500      -0.00000744      -0.00001018      -0.05967202
Li       4.25200702      22.98310489      41.80066143        0      -1.20588208      -0.74636417       1.68440363       0.00008092       0.00004527       0.00014579      -0.00006110      -0.00009682       0.00004644      -0.34402183
Li       8.07614929      19.90720695      37.47943627        0       0.63408219      -2.04222172      -0.09910560       0.00005120       0.00026533       0.00001001       0.00000360      -0.00000186      -0.00006746      -0.41988427
Li       4.31384720      20.06511309      37.47943627        0      -0.68554818      -2.08144702      -0.10005042       0.00005106       0.00026732       0.00000978       0.00000416       0.00000173       0.00006912      -0.45511942
Li       6.19499824      25.81221249      40.58537509        1      -0.00803200       0.00781677       0.01479524       0.00001025       0.00001249       0.00001599       0.00000205      -0.00000114      -0.00000129      -0.02325513
Li       8.19631389      23.01146723      37.47116099        0      -0.68554813      -2.08144693       0.10005028       0.00005106       0.00026732       0.00000978      -0.00000416      -0.00000173       0.00006912      -0.45511935
Li       4.19368260      23.17946012      37.47116099        0       0.63408220      -2.04222181       0.09910573       0.00005120       0.00026533       0.00001001      -0.00000360       0.00000186      -0.00006746      -0.41988434
Li       8.07614929      19.90720695      33.15405099        0       0.63408219      -2.04222172      -0.09910560       0.00005120       0.00026533       0.00001001       0.00000360      -0.00000186      -0.00006746      -0.41988427
Li       4.31384720      20.06511309      33.15405099        0      -0.68554818      -2.08144702      -0.10005042       0.00005106       0.00026732       0.00000978       0.00000416       0.00000173       0.00006912      -0.45511942
Li       6.19499824      25.81220341      36.26007089        1       0.00227721       0.00188093       0.11296324       0.00002649       0.00001333       0.00002737      -0.00000088       0.00000023      -0.00000069      -0.04983191
Li       8.19631389      23.01146723      33.14577571        0      -0.68554813      -2.08144693       0.10005028       0.00005106       0.00026732       0.00000978      -0.00000416      -0.00000173       0.00006912      -0.45511935
Li       4.19368260      23.17946012      33.14577571        0       0.63408220      -2.04222181       0.09910573       0.00005120       0.00026533       0.00001001      -0.00000360       0.00000186      -0.00006746      -0.41988434
Li       8.07614929      19.90720695      28.82866572        0       0.63408219      -2.04222172      -0.09910560       0.00005120       0.00026533       0.00001001       0.00000360      -0.00000186      -0.00006746      -0.41988427
Li       4.31384720      20.06511309      28.82866572        0      -0.68554818      -2.08144702      -0.10005042       0.00005106       0.00026732       0.00000978       0.00000416       0.00000173       0.00006912      -0.45511942
Li       6.19499824      25.81220341      31.93468561        1       0.00227721       0.00188093       0.11296324       0.00002649       0.00001333       0.00002737      -0.00000088       0.00000023      -0.00000069      -0.04983191
Li       8.19631389      23.01146723      28.82039043        0      -0.68554813      -2.08144693       0.10005028       0.00005106       0.00026732       0.00000978      -0.00000416      -0.00000173       0.00006912      -0.45511935
Li       4.19368260      23.17946012      28.82039043        0       0.63408220      -2.04222181       0.09910573       0.00005120       0.00026533       0.00001001      -0.00000360       0.00000186      -0.00006746      -0.41988434
Li       8.07614929      19.90720695      24.50328044        0       0.63408219      -2.04222172      -0.09910560       0.00005120       0.00026533       0.00001001       0.00000360      -0.00000186      -0.00006746      -0.41988427
Li       4.31384720      20.06511309      24.50328044        0      -0.68554818      -2.08144702      -0.10005042       0.00005106       0.00026732       0.00000978       0.00000416       0.00000173       0.00006912      -0.45511942
Li       6.19499824      25.81220341      27.60930033        1       0.00227721       0.00188093       0.11296324       0.00002649       0.00001333       0.00002737      -0.00000088       0.00000023      -0.00000069      -0.04983191
Li       8.19631389      23.01146723      24.49500515        0      -0.68554813      -2.08144693       0.10005028       0.00005106       0.00026732       0.00000978      -0.00000416      -0.00000173       0.00006912      -0.45511935
Li       4.19368260      23.17946012      24.49500515        0       0.63408220      -2.04222181       0.09910573       0.00005120       0.00026533       0.00001001      -0.00000360       0.00000186      -0.00006746      -0.41988434
Li       8.07614929      19.90720695      20.17789516        0       0.63408219      -2.04222172      -0.09910560       0.00005120       0.00026533       0.00001001       0.00000360      -0.00000186      -0.00006746      -0.41988427
Li       4.31384720      20.06511309      20.17789516        0      -0.68554818      -2.08144702      -0.10005042       0.00005106       0.00026732       0.00000978       0.00000416       0.00000173       0.00006912      -0.45511942
Li       6.19499824      25.81220341      23.28391505        1       0.00227721       0.00188093       0.11296324       0.00002649       0.00001333       0.00002737      -0.00000088       0.00000023      -0.00000069      -0.04983191
Li       8.19631389      23.01146723      20.16961987        0      -0.68554813      -2.08144693       0.10005028       0.00005106       0.00026732       0.00000978      -0.00000416      -0.00000173       0.00006912      -0.45511935
Li       4.19368260      23.17946012      20.16961987        0       0.63408220      -2.04222181       0.09910573       0.00005120       0.00026533       0.00001001      -0.00000360       0.00000186      -0.00006746      -0.41988434
Li       8.07614929      19.90720695      15.85250988        0       0.63408219      -2.04222172      -0.09910560       0.00005120       0.00026533       0.00001001       0.00000360      -0.00000186      -0.00006746      -0.41988427
Li       4.31384720      20.06511309      15.85250988        0      -0.68554818      -2.08144702      -0.10005042       0.00005106       0.00026732       0.00000978       0.00000416       0.00000173       0.00006912      -0.45511942
Li       6.19499824      25.81220341      18.95852977        1       0.00227721       0.00188093       0.11296324       0.00002649       0.00001333       0.00002737      -0.00000088       0.00000023      -0.00000069      -0.04983191
Li       8.19631389      23.01146723      15.84423459        0      -0.68554813      -2.08144693       0.10005028       0.00005106       0.00026732       0.00000978      -0.00000416      -0.00000173       0.00006912      -0.45511935
Li       4.19368260      23.17946012      15.84423459        0       0.63408220      -2.04222181       0.09910573       0.00005120       0.00026533       0.00001001      -0.00000360       0.00000186      -0.00006746      -0.41988434
Li       8.07614929      19.90720695      11.52712460        0       0.62865470      -2.05020500      -0.11183932       0.00005162       0.00026625       0.00001236       0.00000507      -0.00000086      -0.00006684      -0.42093574
Li       4.31384720      20.06511309      11.52712460        0      -0.69490464      -2.08054424      -0.11228035       0.00005238       0.00026733       0.00001204       0.00000399       0.00000346       0.00006899      -0.45605772
Li       6.19499824      25.81220341      14.63314449        1       0.00227721       0.00188093       0.11296324       0.00002649       0.00001333       0.00002737      -0.00000088       0.00000023      -0.00000069      -0.04983191
Li       8.19631389      23.01146723      11.51884931        0      -0.66790396      -2.08024043       0.05353792       0.00005229       0.00026733       0.00001835      -0.00000438      -0.00000498       0.00006920      -0.46244020
Li       4.19368260      23.17946012      11.51884931        0       0.63612886      -2.03204782       0.08506870       0.00005125       0.00026669       0.00001259      -0.00000547       0.00000149      -0.00006719      -0.42123478
Li       8.13447372      19.71085172       7.19762416        0      -0.38715464      -0.94557414      -0.34694964       0.00007454       0.00005699       0.00005437      -0.00005153      -0.00000614       0.00004983      -0.71724352
Li       4.25552277      19.87365367       7.19762416        0    -259.12251221     225.18570679    -136.39148138      -0.01237949      -0.00939686      -0.00335034       0.00571967      -0.00658558       0.01083367       9.93208170
Li       6.19499824      25.81220341      10.30775921        1       0.12261435       0.01166141      -0.05719314       0.00006014       0.00001845       0.00004188      -0.00000171      -0.00001003       0.00001148      -0.09968384
Li       8.13798947      29.03861513      41.80066143        0       1.10744238      -0.90359661       1.84038485       0.00006249       0.00005871       0.00015857      -0.00007486       0.00009090      -0.00004700      -0.38308440
Li       8.07614929      26.12581426      37.47943627        0       0.63408219      -2.04222172      -0.09910560       0.00005120       0.00026533       0.00001001       0.00000360      -0.00000186      -0.00006746      -0.41988427
Li       8.19631389      29.23007454      37.47116099        0      -0.68554813      -2.08144693       0.10005028       0.00005106       0.00026732       0.00000978      -0.00000416      -0.00000173       0.00006912      -0.45511935
Li       8.07614929      26.12581426      33.15405099        0       0.63408219      -2.04222172      -0.09910560       0.00005120       0.00026533       0.00001001       0.00000360      -0.00000186      -0.00006746      -0.41988427
Li       8.19631389      29.23007454      33.14577571        0      -0.68554813      -2.08144693       0.10005028       0.00005106       0.00026732       0.00000978      -0.00000416      -0.00000173       0.00006912      -0.45511935