504
Lattice="-4.166030694342068e-16 18.6558219398172 0.0 7.764933388889874 18.32992290740971 0.0 0.0 0.0 48.139093492895675" Properties=species:S:1:pos:R:3:spacegroup_kinds:I:1:forces:R:3:stresses:R:6:energies:R:1 spacegroup="P m n 21" unit_cell=conventional occupancy="_JSON {\"0\": {\"Li\": 1.0}, \"1\": {\"Li\": 1.0}, \"2\": {\"P\": 1.0}, \"3\": {\"S\": 0.97}, \"4\": {\"S\": 0.98}, \"5\": {\"S\": 0.99}}" energy=-104.41891211579858 stress="0.015433054073212035 -0.0001975789677033431 9.411185138424296e-07 -0.0001975789677033431 0.04531714574674077 -2.704411159753621e-06 9.411185138424296e-07 -2.704411159753621e-06 0.01913034756981137" free_energy=-104.41891211579858 pbc="T T T"
Li       2.02897833       4.20891506      43.77895844        1       0.00227750       0.00187734      -0.11295720       0.00002328       0.00001171       0.00002405       0.00000077      -0.00000021      -0.00000061      -0.04983314
Li       2.02897833       4.20891506      39.45357316        1       0.00227750       0.00188093      -0.11296325       0.00002328       0.00001171       0.00002405       0.00000077      -0.00000021      -0.00000061      -0.04983191
Li       2.02897833       4.20891506      35.12818788        1       0.00227750       0.00188093      -0.11296325       0.00002328       0.00001171       0.00002405       0.00000077      -0.00000021      -0.00000061      -0.04983191
Li       2.02897833       4.20891506      30.80280260        1       0.00227750       0.00188093      -0.11296325       0.00002328       0.00001171       0.00002405       0.00000077      -0.00000021      -0.00000061      -0.04983191
Li       2.02897833       4.20891506      26.47741732        1       0.00227750       0.00188093      -0.11296325       0.00002328       0.00001171       0.00002405       0.00000077      -0.00000021      -0.00000061      -0.04983191
Li       2.02897833       4.20891506      22.15203204        1       0.00227750       0.00188093      -0.11296325       0.00002328       0.00001171       0.00002405       0.00000077      -0.00000021      -0.00000061      -0.04983191
Li       2.02897833       4.20891506      17.82664676        1       0.00227750       0.00188093      -0.11296325       0.00002328       0.00001171       0.00002405       0.00000077      -0.00000021      -0.00000061      -0.04983191
Li       2.02897833       4.20892414      13.50134257        1      -0.00375668       0.00310192       0.01534218       0.00000856       0.00000881       0.00000926      -0.00000106       0.00000032      -0.00000019      -0.02012409
Li       3.96845303      10.54477802      46.88909349        0      -0.02097598       0.04144157      -0.01321275       0.00000895       0.00001414       0.00000708       0.00000397       0.00000063       0.00000076      -0.02427375
Li       4.03029321       7.62678622      42.56786834        0      -0.68554818      -2.08144702      -0.10005042       0.00004486       0.00023490       0.00000860       0.00000366       0.00000152       0.00006074      -0.45511942
Li       5.91144425      13.37388563      45.67380715        1      -0.00375677       0.00310192      -0.01534217       0.00000856       0.00000881       0.00000926       0.00000106      -0.00000032      -0.00000019      -0.02012409
Li       2.02897833      10.42752238      43.77895844        1       0.00227750       0.00187734      -0.11295720       0.00002328       0.00001171       0.00002405       0.00000077      -0.00000021      -0.00000061      -0.04983314
Li       3.91012860      10.74113326      42.55959305        0       0.63408220      -2.04222181       0.09910573       0.00004499       0.00023315       0.00000879      -0.00000316       0.00000164      -0.00005928      -0.41988434
Li       4.03029321       7.62678622      38.24248306        0      -0.68554818      -2.08144702      -0.10005042       0.00004486       0.00023490       0.00000860       0.00000366       0.00000152       0.00006074      -0.45511942
Li       5.91144425      13.37387655      41.34850295        1       0.00227721       0.00188093       0.11296324       0.00002328       0.00001171       0.00002405      -0.00000077       0.00000021      -0.00000061      -0.04983191
Li       2.02897833      10.42752238      39.45357316        1       0.00227750       0.00188093      -0.11296325       0.00002328       0.00001171       0.00002405       0.00000077      -0.00000021      -0.00000061      -0.04983191
Li       3.91012860      10.74113326      38.23420777        0       0.63408220      -2.04222181       0.09910573       0.00004499       0.00023315       0.00000879      -0.00000316       0.00000164      -0.00005928      -0.41988434
Li       4.03029321       7.62678622      33.91709778        0      -0.68554818      -2.08144702      -0.10005042       0.00004486       0.00023490       0.00000860       0.00000366       0.00000152       0.00006074      -0.45511942
Li       5.91144425      13.37387655      37.02311767        1       0.00227721       0.00188093       0.11296324       0.00002328       0.00001171       0.00002405      -0.00000077       0.00000021      -0.00000061      -0.04983191
Li       2.02897833      10.42752238      35.12818788        1       0.00227750       0.00188093      -0.11296325       0.00002328       0.00001171       0.00002405       0.00000077      -0.00000021      -0.00000061      -0.04983191
Li       3.91012860      10.74113326      33.90882249        0       0.63408220      -2.04222181       0.09910573       0.00004499       0.00023315       0.00000879      -0.00000316       0.00000164      -0.00005928      -0.41988434
Li       4.03029321       7.62678622      29.59171250        0      -0.68554818      -2.08144702      -0.10005042       0.00004486       0.00023490       0.00000860       0.00000366       0.00000152       0.00006074      -0.45511942
Li       5.91144425      13.37387655      32.69773239        1       0.00227721       0.00188093       0.11296324       0.00002328       0.00001171       0.00002405      -0.00000077       0.00000021      -0.00000061      -0.04983191
Li       2.02897833      10.42752238      30.80280260        1       0.00227750       0.00188093      -0.11296325       0.00002328       0.00001171       0.00002405       0.00000077      -0.00000021      -0.00000061      -0.04983191
Li       3.91012860      10.74113326      29.58343722        0       0.63408220      -2.04222181       0.09910573       0.00004499       0.00023315       0.00000879      -0.00000316       0.00000164      -0.00005928      -0.41988434
Li       4.03029321       7.62678622      25.26632722        0      -0.68554818      -2.08144702      -0.10005042       0.00004486       0.00023490       0.00000860       0.00000366       0.00000152       0.00006074      -0.45511942
Li       5.91144425      13.37387655      28.37234712        1       0.00227721       0.00188093       0.11296324       0.00002328       0.00001171       0.00002405      -0.00000077       0.00000021      -0.00000061      -0.04983191
Li       2.02897833      10.42752238      26.47741732        1       0.00227750       0.00188093      -0.11296325       0.00002328       0.00001171       0.00002405       0.00000077      -0.00000021      -0.00000061      -0.04983191
Li       3.91012860      10.74113326      25.25805194        0       0.63408220      -2.04222181       0.09910573       0.00004499       0.00023315       0.00000879      -0.00000316       0.00000164      -0.00005928      -0.41988434
Li       4.03029321       7.62678622      20.94094194        0      -0.68554818      -2.08144702      -0.10005042       0.00004486       0.00023490       0.00000860       0.00000366       0.00000152       0.00006074      -0.45511942
Li       5.91144425      13.37387655      24.04696184        1       0.00227721       0.00188093       0.11296324       0.00002328       0.00001171       0.00002405      -0.00000077       0.00000021      -0.00000061      -0.04983191
Li       2.02897833      10.42752238      22.15203204        1       0.00227750       0.00188093      -0.11296325       0.00002328       0.00001171       0.00002405       0.00000077      -0.00000021      -0.00000061      -0.04983191
Li       3.91012860      10.74113326      20.93266666        0       0.63408220      -2.04222181       0.09910573       0.00004499       0.00023315       0.00000879      -0.00000316       0.00000164      -0.00005928      -0.41988434
Li       4.03029321       7.62678622      16.61555666        0      -0.68554818      -2.08144702      -0.10005042       0.00004486       0.00023490       0.00000860       0.00000366       0.00000152       0.00006074      -0.45511942
Li       5.91144425      13.37387655      19.72157656        1       0.00227721       0.00188093       0.11296324       0.00002328       0.00001171       0.00002405      -0.00000077       0.00000021      -0.00000061      -0.04983191
Li       2.02897833      10.42752238      17.82664676        1       0.00227750       0.00188093      -0.11296325       0.00002328       0.00001171       0.00002405       0.00000077      -0.00000021      -0.00000061      -0.04983191
Li       3.91012860      10.74113326      16.60728138        0       0.63408220      -2.04222181       0.09910573       0.00004499       0.00023315       0.00000879      -0.00000316       0.00000164      -0.00005928      -0.41988434
Li       3.97196878       7.43532681      12.28605622        0       0.01252751       0.03833200       0.00905540       0.00000852       0.00001606       0.00000725      -0.00000189      -0.00000109      -0.00000101      -0.02346871
Li       5.91144425      13.37387655      15.39619128        1       0.00227721       0.00187735       0.11295720       0.00002328       0.00001171       0.00002405      -0.00000077       0.00000021      -0.00000061      -0.04983314
Li       2.02897833      10.42753146      13.50134257        1      -0.00375668       0.00310192       0.01534218       0.00000856       0.00000881       0.00000926      -0.00000106       0.00000032      -0.00000019      -0.02012409
Li       7.85443547      16.60028826      46.88909349        0       0.01117188       0.04068044      -0.03496812       0.00000818       0.00001407       0.00000302       0.00000227       0.00000087      -0.00000019      -0.02132193
Li       3.96845303      16.76338534      46.88909349        0      -0.02379631       0.03324929      -0.03610185       0.00000889       0.00001361       0.00000297       0.00000250       0.00000013       0.00000058      -0.02154662
Li       4.03029321      13.84539353      42.56786834        0      -0.68554818      -2.08144702      -0.10005042       0.00004486       0.00023490       0.00000860       0.00000366       0.00000152       0.00006074      -0.45511942
Li       5.91144425      19.59249294      45.67380715        1      -0.00375677       0.00310192      -0.01534217       0.00000856       0.00000881       0.00000926       0.00000106      -0.00000032      -0.00000019      -0.02012409
Li       2.02897833      16.64612969      43.77895844        1       0.00227750       0.00187734      -0.11295720       0.00002328       0.00001171       0.00002405       0.00000077      -0.00000021      -0.00000061      -0.04983314
Li       7.91275990      16.79174767      42.55959305        0      -0.68554813      -2.08144693       0.10005028       0.00004486       0.00023490       0.00000860      -0.00000366      -0.00000152       0.00006074      -0.45511935
Li       3.91012860      16.95974057      42.55959305        0       0.63408220      -2.04222181       0.09910573       0.00004499       0.00023315       0.00000879      -0.00000316       0.00000164      -0.00005928      -0.41988434
Li       4.03029321      13.84539353      38.24248306        0      -0.68554818      -2.08144702      -0.10005042       0.00004486       0.00023490       0.00000860       0.00000366       0.00000152       0.00006074      -0.45511942
Li       5.91144425      19.59248386      41.34850295        1       0.00227721       0.00188093       0.11296324       0.00002328       0.00001171       0.00002405      -0.00000077       0.00000021      -0.00000061      -0.04983191
Li       2.02897833      16.64612969      39.45357316        1       0.00227750       0.00188093      -0.11296325       0.00002328       0.00001171       0.00002405       0.00000077      -0.00000021      -0.00000061      -0.04983191
Li       7.91275990      16.79174767      38.23420777        0      -0.68554813      -2.08144693       0.10005028       0.00004486       0.00023490       0.00000860      -0.00000366      -0.00000152       0.00006074      -0.45511935
Li       3.91012860      16.95974057      38.23420777        0       0.63408220      -2.04222181       0.09910573       0.00004499       0.00023315       0.00000879      -0.00000316       0.00000164      -0.00005928      -0.41988434
Li       4.03029321      13.84539353      33.91709778        0      -0.68554818      -2.08144702      -0.10005042       0.00004486       0.00023490       0.00000860       0.00000366       0.00000152       0.00006074      -0.45511942
Li       5.91144425      19.59248386      37.02311767        1       0.00227721       0.00188093       0.11296324       0.00002328       0.00001171       0.00002405      -0.00000077       0.00000021      -0.00000061      -0.04983191
Li       2.02897833      16.64612969      35.12818788        1       0.00227750       0.00188093      -0.11296325       0.00002328       0.00001171       0.00002405       0.00000077      -0.00000021      -0.00000061      -0.04983191
Li       7.91275990      16.79174767      33.90882249        0      -0.68554813      -2.08144693       0.10005028       0.00004486       0.00023490       0.00000860      -0.00000366      -0.00000152       0.00006074      -0.45511935
Li       3.91012860      16.95974057      33.90882249        0       0.63408220      -2.04222181       0.09910573       0.00004499       0.00023315       0.00000879      -0.00000316       0.00000164      -0.00005928      -0.41988434
Li       4.03029321      13.84539353      29.59171250        0      -0.68554818      -2.08144702      -0.10005042       0.00004486       0.00023490       0.00000860       0.00000366       0.00000152       0.00006074      -0.45511942
Li       5.91144425      19.59248386      32.69773239        1       0.00227721       0.00188093       0.11296324       0.00002328       0.00001171       0.00002405      -0.00000077       0.00000021      -0.00000061      -0.04983191
Li       2.02897833      16.64612969      30.80280260        1       0.00227750       0.00188093      -0.11296325       0.00002328       0.00001171       0.00002405       0.00000077      -0.00000021      -0.00000061      -0.04983191
Li       7.91275990      16.79174767      29.58343722        0      -0.68554813      -2.08144693       0.10005028       0.00004486       0.00023490       0.00000860      -0.00000366      -0.00000152       0.00006074      -0.45511935
Li       3.91012860      16.95974057      29.58343722        0       0.63408220      -2.04222181       0.09910573       0.00004499       0.00023315       0.00000879      -0.00000316       0.00000164      -0.00005928      -0.41988434
Li       4.03029321      13.84539353      25.26632722        0      -0.68554818      -2.08144702      -0.10005042       0.00004486       0.00023490       0.00000860       0.00000366       0.00000152       0.00006074      -0.45511942
Li       5.91144425      19.59248386      28.37234712        1       0.00227721       0.00188093       0.11296324       0.00002328       0.00001171       0.00002405      -0.00000077       0.00000021      -0.00000061      -0.04983191
Li       2.02897833      16.64612969      26.47741732        1       0.00227750       0.00188093      -0.11296325       0.00002328       0.00001171       0.00002405       0.00000077      -0.00000021      -0.00000061      -0.04983191
Li       7.91275990      16.79174767      25.25805194        0      -0.68554813      -2.08144693       0.10005028       0.00004486       0.00023490       0.00000860      -0.00000366      -0.00000152       0.00006074      -0.45511935
Li       3.91012860      16.95974057      25.25805194        0       0.63408220      -2.04222181       0.09910573       0.00004499       0.00023315       0.00000879      -0.00000316       0.00000164      -0.00005928      -0.41988434
Li       4.03029321      13.84539353      20.94094194        0      -0.68554818      -2.08144702      -0.10005042       0.00004486       0.00023490       0.00000860       0.00000366       0.00000152       0.00006074      -0.45511942
Li       5.91144425      19.59248386      24.04696184        1       0.00227721       0.00188093       0.11296324       0.00002328       0.00001171       0.00002405      -0.00000077       0.00000021      -0.00000061      -0.04983191
Li       2.02897833      16.64612969      22.15203204        1       0.00227750       0.00188093      -0.11296325       0.00002328       0.00001171       0.00002405       0.00000077      -0.00000021      -0.00000061      -0.04983191
Li       7.91275990      16.79174767      20.93266666        0      -0.68554813      -2.08144693       0.10005028       0.00004486       0.00023490       0.00000860      -0.00000366      -0.00000152       0.00006074      -0.45511935
Li       3.91012860      16.95974057      20.93266666        0       0.63408220      -2.04222181       0.09910573       0.00004499       0.00023315       0.00000879      -0.00000316       0.00000164      -0.00005928      -0.41988434
Li       4.03029321      13.84539353      16.61555666        0      -0.68554818      -2.08144702      -0.10005042       0.00004486       0.00023490       0.00000860       0.00000366       0.00000152       0.00006074      -0.45511942
Li       5.91144425      19.59248386      19.72157656        1       0.00227721       0.00188093       0.11296324       0.00002328       0.00001171       0.00002405      -0.00000077       0.00000021      -0.00000061      -0.04983191
Li       2.02897833      16.64612969      17.82664676        1       0.00227750       0.00188093      -0.11296325       0.00002328       0.00001171       0.00002405       0.00000077      -0.00000021      -0.00000061      -0.04983191
Li       7.91275990      16.79174767      16.60728138        0      -0.68554813      -2.08144693       0.10005028       0.00004486       0.00023490       0.00000860      -0.00000366      -0.00000152       0.00006074      -0.45511935
Li       3.91012860      16.95974057      16.60728138        0       0.63408220      -2.04222181       0.09910573       0.00004499       0.00023315       0.00000879      -0.00000316       0.00000164      -0.00005928      -0.41988434
Li       3.97196878      13.65393412      12.28605622        0       0.02539139       0.04153751       0.00961669       0.00000948       0.00001408       0.00000715      -0.00000241      -0.00000319      -0.00000011      -0.02492181
Li       5.91144425      19.59248386      15.39619128        1       0.00227721       0.00187735       0.11295720       0.00002328       0.00001171       0.00002405      -0.00000077       0.00000021      -0.00000061      -0.04983314
Li       2.02897833      16.64613877      13.50134257        1      -0.00375668       0.00310192       0.01534218       0.00000856       0.00000881       0.00000926      -0.00000106       0.00000032      -0.00000019      -0.02012409
Li       7.85443547      22.81889558      46.88909349        0       0.00575672       0.04587461      -0.02128835       0.00000857       0.00001443       0.00000547       0.00000321      -0.00000010      -0.00000056      -0.02229654
Li       3.96845303      22.98199265      46.88909349        0      -0.02765554       0.02604712      -0.00764442       0.00000898       0.00001394       0.00000808       0.00000121      -0.00000057       0.00000076      -0.02524517
Li       7.79259530      19.90609471      42.56786834        0       0.63408219      -2.04222172      -0.09910560       0.00004499       0.00023315       0.00000879       0.00000316      -0.00000164      -0.00005928      -0.41988427
Li       4.03029321      20.06400085      42.56786834        0      -0.68554818      -2.08144702      -0.10005042       0.00004486       0.00023490       0.00000860       0.00000366       0.00000152       0.00006074      -0.45511942
Li       5.91144425      25.81110026      45.67380715        1      -0.00375677       0.00310192      -0.01534217       0.00000856       0.00000881       0.00000926       0.00000106      -0.00000032      -0.00000019      -0.02012409
Li       7.91275990      23.01035499      42.55959305        0      -0.68554813      -2.08144693       0.10005028       0.00004486       0.00023490       0.00000860      -0.00000366      -0.00000152       0.00006074      -0.45511935
Li       3.91012860      23.17834789      42.55959305        0       0.63408220      -2.04222181       0.09910573       0.00004499       0.00023315       0.00000879      -0.00000316       0.00000164      -0.00005928      -0.41988434
Li       7.79259530      19.90609471      38.24248306        0       0.63408219      -2.04222172      -0.09910560       0.00004499       0.00023315       0.00000879       0.00000316      -0.00000164      -0.00005928      -0.41988427
Li       4.03029321      20.06400085      38.24248306        0      -0.68554818      -2.08144702      -0.10005042       0.00004486       0.00023490       0.00000860       0.00000366       0.00000152       0.00006074      -0.45511942
Li       5.91144425      25.81109118      41.34850295        1       0.00227721       0.00188093       0.11296324       0.00002328       0.00001171       0.00002405      -0.00000077       0.00000021      -0.00000061      -0.04983191
Li       7.91275990      23.01035499      38.23420777        0      -0.68554813      -2.08144693       0.10005028       0.00004486       0.00023490       0.00000860      -0.00000366      -0.00000152       0.00006074      -0.45511935
Li       3.91012860      23.17834789      38.23420777        0       0.63408220      -2.04222181       0.09910573       0.00004499       0.00023315       0.00000879      -0.00000316       0.00000164      -0.00005928      -0.41988434
Li       7.79259530      19.90609471      33.91709778        0       0.63408219      -2.04222172      -0.09910560       0.00004499       0.00023315       0.00000879       0.00000316      -0.00000164      -0.00005928      -0.41988427
Li       4.03029321      20.06400085      33.91709778        0      -0.68554818      -2.08144702      -0.10005042       0.00004486       0.00023490       0.00000860       0.00000366       0.00000152       0.00006074      -0.45511942
Li       5.91144425      25.81109118      37.02311767        1       0.00227721       0.00188093       0.11296324       0.00002328       0.00001171       0.00002405      -0.00000077       0.00000021      -0.00000061      -0.04983191
Li       7.91275990      23.01035499      33.90882249        0      -0.68554813      -2.08144693       0.10005028       0.00004486       0.00023490       0.00000860      -0.00000366      -0.00000152       0.00006074      -0.45511935
Li       3.91012860      23.17834789      33.90882249        0       0.63408220      -2.04222181       0.09910573       0.00004499       0.00023315       0.00000879      -0.00000316       0.00000164      -0.00005928      -0.41988434
Li       7.79259530      19.90609471      29.59171250        0       0.63408219      -2.04222172      -0.09910560       0.00004499       0.00023315       0.00000879       0.00000316      -0.00000164      -0.00005928      -0.41988427
Li       4.03029321      20.06400085      29.59171250        0      -0.68554818      -2.08144702      -0.10005042       0.00004486       0.00023490       0.00000860       0.00000366       0.00000152       0.00006074      -0.45511942
Li       5.91144425      25.81109118      32.69773239        1       0.00227721       0.00188093       0.11296324       0.00002328       0.00001171       0.00002405      -0.00000077       0.00000021      -0.00000061      -0.04983191
Li       7.91275990      23.01035499      29.58343722        0      -0.68554813      -2.08144693       0.10005028       0.00004486       0.00023490       0.00000860      -0.00000366      -0.00000152       0.00006074      -0.45511935
Li       3.91012860      23.17834789      29.58343722        0       0.63408220      -2.04222181       0.09910573       0.00004499       0.00023315       0.00000879      -0.00000316       0.00000164      -0.00005928      -0.41988434
Li       7.79259530      19.90609471      25.26632722        0       0.63408219      -2.04222172      -0.09910560       0.00004499       0.00023315       0.00000879       0.00000316      -0.00000164      -0.00005928      -0.41988427
Li       4.03029321      20.06400085      25.26632722        0      -0.68554818      -2.08144702      -0.10005042       0.00004486       0.00023490       0.00000860       0.00000366       0.00000152       0.00006074      -0.45511942
Li       5.91144425      25.81109118      28.37234712        1       0.00227721       0.00188093       0.11296324       0.00002328       0.00001171       0.00002405      -0.00000077       0.00000021      -0.00000061      -0.04983191
Li       7.91275990      23.01035499      25.25805194        0      -0.68554813      -2.08144693       0.10005028       0.00004486       0.00023490       0.00000860      -0.00000366      -0.00000152       0.00006074      -0.45511935
Li       3.91012860      23.17834789      25.25805194        0       0.63408220      -2.04222181       0.09910573       0.00004499       0.00023315       0.00000879      -0.00000316       0.00000164      -0.00005928      -0.41988434
Li       7.79259530      19.90609471      20.94094194        0       0.63408219      -2.04222172      -0.09910560       0.00004499       0.00023315       0.00000879       0.00000316      -0.00000164      -0.00005928      -0.41988427
Li       4.03029321      20.06400085      20.94094194        0      -0.68554818      -2.08144702      -0.10005042       0.00004486       0.00023490       0.00000860       0.00000366       0.00000152       0.00006074      -0.45511942
Li       5.91144425      25.81109118      24.04696184        1       0.00227721       0.00188093       0.11296324       0.00002328       0.00001171       0.00002405      -0.00000077       0.00000021      -0.00000061      -0.04983191
Li       7.91275990      23.01035499      20.93266666        0      -0.68554813      -2.08144693       0.10005028       0.00004486       0.00023490       0.00000860      -0.00000366      -0.00000152       0.00006074      -0.45511935
Li       3.91012860      23.17834789      20.93266666        0       0.63408220      -2.04222181       0.09910573       0.00004499       0.00023315       0.00000879      -0.00000316       0.00000164      -0.00005928      -0.41988434
Li       7.79259530      19.90609471      16.61555666        0       0.63408219      -2.04222172      -0.09910560       0.00004499       0.00023315       0.00000879       0.00000316      -0.00000164      -0.00005928      -0.41988427
Li       4.03029321      20.06400085      16.61555666        0      -0.68554818      -2.08144702      -0.10005042       0.00004486       0.00023490       0.00000860       0.00000366       0.00000152       0.00006074      -0.45511942
Li       5.91144425      25.81109118      19.72157656        1       0.00227721       0.00188093       0.11296324       0.00002328       0.00001171       0.00002405      -0.00000077       0.00000021      -0.00000061      -0.04983191
Li       7.91275990      23.01035499      16.60728138        0      -0.68554813      -2.08144693       0.10005028       0.00004486       0.00023490       0.00000860      -0.00000366      -0.00000152       0.00006074      -0.45511935
Li       3.91012860      23.17834789      16.60728138        0       0.63408220      -2.04222181       0.09910573       0.00004499       0.00023315       0.00000879      -0.00000316       0.00000164      -0.00005928      -0.41988434
Li       7.85091972      19.70973948      12.28605622        0      -0.02864818       0.02302335       0.01945402       0.00000912       0.00001464       0.00000569      -0.00000083       0.00000067       0.00000107      -0.02342946
Li       3.97196878      19.87254144      12.28605622        0      -0.00243230       0.04260209       0.01141601       0.00000947       0.00001410       0.00000686      -0.00000259       0.00000134      -0.00000037      -0.02458074
Li       5.91144425      25.81109118      15.39619128        1       0.00227721       0.00187735       0.11295720       0.00002328       0.00001171       0.00002405      -0.00000077       0.00000021      -0.00000061      -0.04983314
Li       7.85443547      29.03750289      46.88909349        0       0.01788939       0.03583163      -0.01732027       0.00000864       0.00001431       0.00000619       0.00000141       0.00000208      -0.00000052      -0.02307925
Li       7.79259530      26.12470203      42.56786834        0       0.63408219      -2.04222172      -0.09910560       0.00004499       0.00023315       0.00000879       0.00000316      -0.00000164      -0.00005928      -0.41988427
Li       7.91275990      29.22896230      42.55959305        0      -0.68554813      -2.08144693       0.10005028       0.00004486       0.00023490       0.00000860      -0.00000366      -0.00000152       0.00006074      -0.45511935
Li       7.79259530      26.12470203      38.24248306        0       0.63408219      -2.04222172      -0.09910560       0.00004499       0.00023315       0.00000879       0.00000316      -0.00000164      -0.00005928      -0.41988427
Li       7.91275990      29.22896230      38.23420777        0      -0.68554813      -2.08144693       0.10005028       0.00004486       0.00023490       0.00000860      -0.00000366      -0.00000152       0.00006074      -0.45511935