504
Lattice="-4.166030694342068e-16 18.6558219398172 0.0 7.764933388889874 18.32992290740971 0.0 0.0 0.0 -45.77182202407539" Properties=species:S:1:pos:R:3:spacegroup_kinds:I:1:forces:R:3:stresses:R:6:energies:R:1 spacegroup="P m n 21" unit_cell=conventional occupancy="_JSON {\"0\": {\"Li\": 1.0}, \"1\": {\"Li\": 1.0}, \"2\": {\"P\": 1.0}, \"3\": {\"S\": 0.97}, \"4\": {\"S\": 0.98}, \"5\": {\"S\": 0.99}}" energy=-121.6206845163571 stress="0.016605885731542723 -0.0008593534611631218 -1.1845621423852418e-05 -0.0008593534611631218 0.043501055152182 0.00017500522094869103 -1.1845621423852418e-05 0.00017500522094869103 0.02274419645711292" free_energy=-121.6206845163571 pbc="T T T"
Li       3.16050171      13.48397782      -3.73674873        1       0.00180917      -0.00052909      -0.11399774       0.00002487       0.00001219       0.00002533       0.00000106      -0.00000017      -0.00000067      -0.05015991
P        3.16008039      16.64450632      -1.62367552        2      -0.02768222       0.01392951      -0.00786022       0.00003019       0.00003314       0.00004077       0.00000594      -0.00000269      -0.00000075      -0.10293207
S        4.85425575      15.89665988      -0.64227557        3      -0.11634413      -0.11301473       0.03132899       0.00002717       0.00002469       0.00001640      -0.00001375       0.00000088       0.00000091      -0.06251450
S        3.16047548      15.98494975      -3.49348778        4       0.00092713       0.04029777      -0.00218293       0.00002219       0.00001231       0.00004820       0.00000757      -0.00000011      -0.00000062      -0.07312268
S        3.16059961      12.46734749      -1.51316435        5       0.00959857      -0.09381957      -0.01763414       0.00001022       0.00002940       0.00000919       0.00000105       0.00000062       0.00000048      -0.04347958
Li       3.16050171      13.48397787      -8.06213409        1       0.00180836      -0.00044796      -0.11414127       0.00002487       0.00001218       0.00002531       0.00000107      -0.00000017      -0.00000067      -0.05013100
P        3.16024015      16.64425995      -5.94812209        2      -0.01619732      -0.00243944       0.05852514       0.00004777       0.00003497       0.00004654       0.00000239      -0.00000119      -0.00000046      -0.12543968
S        4.80663411      15.73711605      -4.97136063        3       0.52822030       1.83759574       0.04906767       0.00004704       0.00020074       0.00001301      -0.00000062       0.00000177       0.00004012      -0.52943953
S        3.16047548      15.98494949      -7.81887369        4       0.00094273       0.04007166      -0.00266555       0.00002219       0.00001229       0.00004814       0.00000754      -0.00000010      -0.00000062      -0.07304539
S        3.16055640      12.46750901      -5.83707619        5       0.00667233      -0.08087551       0.08237653       0.00002736       0.00003514       0.00002107       0.00000441       0.00000045       0.00000026      -0.06836909
Li       3.16050171      13.48397787     -12.38751937        1       0.00180836      -0.00044796      -0.11414127       0.00002487       0.00001218       0.00002531       0.00000107      -0.00000017      -0.00000067      -0.05013100
P        3.16024015      16.64425995     -10.27350737        2      -0.01619732      -0.00243946       0.05852519       0.00004777       0.00003497       0.00004654       0.00000239      -0.00000119      -0.00000046      -0.12543968
S        4.80663411      15.73711605      -9.29674591        3       0.52822020       1.83759574       0.04906773       0.00004704       0.00020074       0.00001301      -0.00000062       0.00000177       0.00004012      -0.52943955
S        3.16047548      15.98494949     -12.14425897        4       0.00094273       0.04007166      -0.00266555       0.00002219       0.00001229       0.00004814       0.00000754      -0.00000010      -0.00000062      -0.07304539
S        3.16055640      12.46750901     -10.16246147        5       0.00667233      -0.08087551       0.08237654       0.00002736       0.00003514       0.00002107       0.00000441       0.00000045       0.00000026      -0.06836910
Li       3.16050171      13.48397787     -16.71290465        1       0.00180836      -0.00044796      -0.11414127       0.00002487       0.00001218       0.00002531       0.00000107      -0.00000017      -0.00000067      -0.05013100
P        3.16024015      16.64425995     -14.59889265        2      -0.01619732      -0.00243946       0.05852519       0.00004777       0.00003497       0.00004654       0.00000239      -0.00000119      -0.00000046      -0.12543968
S        4.80663411      15.73711605     -13.62213119        3       0.52822020       1.83759574       0.04906773       0.00004704       0.00020074       0.00001301      -0.00000062       0.00000177       0.00004012      -0.52943955
S        3.16047548      15.98494949     -16.46964425        4       0.00094273       0.04007166      -0.00266555       0.00002219       0.00001229       0.00004814       0.00000754      -0.00000010      -0.00000062      -0.07304539
S        3.16055640      12.46750901     -14.48784675        5       0.00667233      -0.08087551       0.08237654       0.00002736       0.00003514       0.00002107       0.00000441       0.00000045       0.00000026      -0.06836910
Li       3.16050171      13.48397787     -21.03828993        1       0.00180836      -0.00044796      -0.11414127       0.00002487       0.00001218       0.00002531       0.00000107      -0.00000017      -0.00000067      -0.05013100
P        3.16024015      16.64425995     -18.92427793        2      -0.01619732      -0.00243946       0.05852519       0.00004777       0.00003497       0.00004654       0.00000239      -0.00000119      -0.00000046      -0.12543968
S        4.80663411      15.73711605     -17.94751647        3       0.52822020       1.83759574       0.04906773       0.00004704       0.00020074       0.00001301      -0.00000062       0.00000177       0.00004012      -0.52943955
S        3.16047548      15.98494949     -20.79502953        4       0.00094273       0.04007166      -0.00266555       0.00002219       0.00001229       0.00004814       0.00000754      -0.00000010      -0.00000062      -0.07304539
S        3.16055640      12.46750901     -18.81323203        5       0.00667233      -0.08087551       0.08237654       0.00002736       0.00003514       0.00002107       0.00000441       0.00000045       0.00000026      -0.06836910
Li       3.16050171      13.48397787     -25.36367521        1       0.00180836      -0.00044796      -0.11414127       0.00002487       0.00001218       0.00002531       0.00000107      -0.00000017      -0.00000067      -0.05013100
P        3.16024015      16.64425995     -23.24966321        2      -0.01619732      -0.00243946       0.05852519       0.00004777       0.00003497       0.00004654       0.00000239      -0.00000119      -0.00000046      -0.12543968
S        4.80663411      15.73711605     -22.27290174        3       0.52822020       1.83759574       0.04906773       0.00004704       0.00020074       0.00001301      -0.00000062       0.00000177       0.00004012      -0.52943955
S        3.16047548      15.98494949     -25.12041481        4       0.00094273       0.04007166      -0.00266555       0.00002219       0.00001229       0.00004814       0.00000754      -0.00000010      -0.00000062      -0.07304539
S        3.16055640      12.46750901     -23.13861731        5       0.00667233      -0.08087551       0.08237654       0.00002736       0.00003514       0.00002107       0.00000441       0.00000045       0.00000026      -0.06836910
Li       3.16050171      13.48397787     -29.68906049        1       0.00180836      -0.00044795      -0.11414126       0.00002487       0.00001218       0.00002531       0.00000107      -0.00000017      -0.00000067      -0.05013100
P        3.16024015      16.64425995     -27.57504849        2      -0.01619732      -0.00243946       0.05852519       0.00004777       0.00003497       0.00004654       0.00000239      -0.00000119      -0.00000046      -0.12543968
S        4.80663411      15.73711605     -26.59828702        3       0.52822020       1.83759574       0.04906773       0.00004704       0.00020074       0.00001301      -0.00000062       0.00000177       0.00004012      -0.52943955
S        3.16047548      15.98494949     -29.44580009        4       0.00094273       0.04007164      -0.00266549       0.00002219       0.00001229       0.00004814       0.00000754      -0.00000010      -0.00000062      -0.07304538
S        3.16055640      12.46750901     -27.46400259        5       0.00667233      -0.08087551       0.08237654       0.00002736       0.00003514       0.00002107       0.00000441       0.00000045       0.00000026      -0.06836910
Li       3.16039092      13.48384356     -34.01284838        1      -0.00572094      -0.00786343      -0.00655334       0.00000899       0.00001024       0.00001363       0.00000088       0.00000066      -0.00000002      -0.02274885
P        3.16024015      16.64425965     -31.90043447        2      -0.01619213      -0.00294247       0.05726693       0.00004777       0.00003499       0.00004669       0.00000245      -0.00000119      -0.00000046      -0.12563707
S        4.80663411      15.73711605     -30.92367230        3       0.52822027       1.83759568       0.04906773       0.00004704       0.00020074       0.00001301      -0.00000062       0.00000177       0.00004012      -0.52943954
S        3.16052650      15.98508797     -33.76906311        4       0.00283280       0.04719272       0.14166799       0.00000716       0.00001150       0.00002991       0.00000751      -0.00000037      -0.00000012      -0.04334141
S        3.16055640      12.46750907     -31.78938798        5       0.00667026      -0.08078522       0.08220358       0.00002736       0.00003515       0.00002109       0.00000440       0.00000045       0.00000026      -0.06840335
Li       5.10460216      19.81622892      -0.61742226        0       0.34625979      -0.26866219       0.56572040       0.00003125       0.00003244       0.00005938      -0.00002543       0.00003468      -0.00001853      -0.12924543
Li       5.15199051      16.87208720      -4.94765445        0      -0.59448640      -1.80144677      -0.09176505       0.00004412       0.00020300       0.00000920       0.00000265       0.00000141       0.00005134      -0.52166287
Li       7.04295118      22.64906226      -1.84028685        1       0.00247250       0.01023477      -0.00069191       0.00000902       0.00000977       0.00001251       0.00000236       0.00000063       0.00000012      -0.02101884
Li       3.16050171      19.70258513      -3.73674873        1       0.00180621      -0.00048961      -0.11408377       0.00002487       0.00001218       0.00002532       0.00000107      -0.00000017      -0.00000067      -0.05014325
P        3.16033938      22.86284420      -1.62384926        2      -0.01092574      -0.00373319      -0.01947635       0.00003066       0.00003198       0.00003897       0.00000277       0.00000052      -0.00000050      -0.10014966
S        5.39760759      18.81983361      -4.92922313        3      -0.57245988       2.10051688      -0.04622905       0.00005181       0.00023098       0.00001415       0.00000069       0.00000373      -0.00004829      -0.50072168
S        4.84864824      22.12145905      -0.61351783        3      -0.54248079       0.34967079       2.23702340       0.00002678       0.00001935       0.00021811       0.00002916      -0.00003804      -0.00001275      -0.41354481
S        3.16047548      22.20355706      -3.49348778        4       0.00095228       0.04033548      -0.00201863       0.00002219       0.00001231       0.00004822       0.00000758      -0.00000010      -0.00000062      -0.07314712
S        7.04302231      21.63247056      -4.06364929        5       0.00667172      -0.08078153      -0.08220780       0.00002736       0.00003515       0.00002109      -0.00000440      -0.00000045       0.00000026      -0.06840294
S        3.16044059      18.68565631      -1.51249476        5      -0.00176174      -0.11504194       0.02850330       0.00001054       0.00003091       0.00001666      -0.00000229      -0.00000116       0.00000119      -0.05107280
Li       5.05067776      19.98699460      -4.95308464        0       0.64550059      -2.09297459       0.09788084       0.00004703       0.00023065       0.00000939      -0.00000279       0.00000180      -0.00005898      -0.48675040
Li       5.15199051      16.87208720      -9.27303973        0      -0.59448642      -1.80144678      -0.09176504       0.00004412       0.00020300       0.00000920       0.00000265       0.00000141       0.00005134      -0.52166287
Li       7.04296763      22.64893935      -6.16397678        1       0.00180807      -0.00044794       0.11414126       0.00002487       0.00001218       0.00002531      -0.00000107       0.00000017      -0.00000067      -0.05013100
Li       3.16050171      19.70258518      -8.06213409        1       0.00180836      -0.00044796      -0.11414127       0.00002487       0.00001218       0.00002531       0.00000107      -0.00000017      -0.00000067      -0.05013100
P        3.16024015      22.86286726      -5.94812209        2      -0.01619732      -0.00243944       0.05852514       0.00004777       0.00003497       0.00004654       0.00000239      -0.00000119      -0.00000046      -0.12543968
S        5.39760759      18.81983361      -9.25460841        3      -0.57245978       2.10051695      -0.04622904       0.00005181       0.00023098       0.00001415       0.00000069       0.00000373      -0.00004829      -0.50072169
S        4.80663411      21.95572336      -4.97136063        3       0.52822030       1.83759574       0.04906767       0.00004704       0.00020074       0.00001301      -0.00000062       0.00000177       0.00004012      -0.52943953
S        3.16047548      22.20355680      -7.81887369        4       0.00094273       0.04007166      -0.00266555       0.00002219       0.00001229       0.00004814       0.00000754      -0.00000010      -0.00000062      -0.07304539
S        7.04302231      21.63247050      -8.38903468        5       0.00667204      -0.08087551      -0.08237653       0.00002736       0.00003514       0.00002107      -0.00000441      -0.00000045       0.00000026      -0.06836909
S        3.16055640      18.68611632      -5.83707619        5       0.00667233      -0.08087551       0.08237653       0.00002736       0.00003514       0.00002107       0.00000441       0.00000045       0.00000026      -0.06836909
Li       5.05067776      19.98699460      -9.27846992        0       0.64550067      -2.09297459       0.09788086       0.00004703       0.00023065       0.00000939      -0.00000279       0.00000180      -0.00005898      -0.48675042
Li       5.15199051      16.87208720     -13.59842500        0      -0.59448642      -1.80144678      -0.09176504       0.00004412       0.00020300       0.00000920       0.00000265       0.00000141       0.00005134      -0.52166287
Li       7.04296763      22.64893935     -10.48936206        1       0.00180807      -0.00044795       0.11414127       0.00002487       0.00001218       0.00002531      -0.00000107       0.00000017      -0.00000067      -0.05013100
Li       3.16050171      19.70258518     -12.38751937        1       0.00180836      -0.00044796      -0.11414127       0.00002487       0.00001218       0.00002531       0.00000107      -0.00000017      -0.00000067      -0.05013100
P        3.16024015      22.86286726     -10.27350737        2      -0.01619732      -0.00243946       0.05852519       0.00004777       0.00003497       0.00004654       0.00000239      -0.00000119      -0.00000046      -0.12543968
S        5.39760759      18.81983361     -13.57999369        3      -0.57245978       2.10051695      -0.04622904       0.00005181       0.00023098       0.00001415       0.00000069       0.00000373      -0.00004829      -0.50072169
S        4.80663411      21.95572336      -9.29674591        3       0.52822020       1.83759574       0.04906773       0.00004704       0.00020074       0.00001301      -0.00000062       0.00000177       0.00004012      -0.52943955
S        3.16047548      22.20355680     -12.14425897        4       0.00094273       0.04007166      -0.00266555       0.00002219       0.00001229       0.00004814       0.00000754      -0.00000010      -0.00000062      -0.07304539
S        7.04302231      21.63247050     -12.71441996        5       0.00667204      -0.08087551      -0.08237653       0.00002736       0.00003514       0.00002107      -0.00000441      -0.00000045       0.00000026      -0.06836909
S        3.16055640      18.68611632     -10.16246147        5       0.00667233      -0.08087551       0.08237654       0.00002736       0.00003514       0.00002107       0.00000441       0.00000045       0.00000026      -0.06836910
Li       5.05067776      19.98699460     -13.60385520        0       0.64550067      -2.09297459       0.09788086       0.00004703       0.00023065       0.00000939      -0.00000279       0.00000180      -0.00005898      -0.48675042
Li       5.15199051      16.87208720     -17.92381028        0      -0.59448642      -1.80144678      -0.09176504       0.00004412       0.00020300       0.00000920       0.00000265       0.00000141       0.00005134      -0.52166287
Li       7.04296763      22.64893935     -14.81474734        1       0.00180807      -0.00044795       0.11414127       0.00002487       0.00001218       0.00002531      -0.00000107       0.00000017      -0.00000067      -0.05013100
Li       3.16050171      19.70258518     -16.71290465        1       0.00180836      -0.00044796      -0.11414127       0.00002487       0.00001218       0.00002531       0.00000107      -0.00000017      -0.00000067      -0.05013100
P        3.16024015      22.86286726     -14.59889265        2      -0.01619732      -0.00243946       0.05852519       0.00004777       0.00003497       0.00004654       0.00000239      -0.00000119      -0.00000046      -0.12543968
S        5.39760759      18.81983361     -17.90537896        3      -0.57245978       2.10051695      -0.04622904       0.00005181       0.00023098       0.00001415       0.00000069       0.00000373      -0.00004829      -0.50072169
S        4.80663411      21.95572336     -13.62213119        3       0.52822020       1.83759574       0.04906773       0.00004704       0.00020074       0.00001301      -0.00000062       0.00000177       0.00004012      -0.52943955
S        3.16047548      22.20355680     -16.46964425        4       0.00094273       0.04007166      -0.00266555       0.00002219       0.00001229       0.00004814       0.00000754      -0.00000010      -0.00000062      -0.07304539
S        7.04302231      21.63247050     -17.03980524        5       0.00667204      -0.08087551      -0.08237653       0.00002736       0.00003514       0.00002107      -0.00000441      -0.00000045       0.00000026      -0.06836909
S        3.16055640      18.68611632     -14.48784675        5       0.00667233      -0.08087551       0.08237654       0.00002736       0.00003514       0.00002107       0.00000441       0.00000045       0.00000026      -0.06836910
Li       5.05067776      19.98699460     -17.92924048        0       0.64550067      -2.09297459       0.09788086       0.00004703       0.00023065       0.00000939      -0.00000279       0.00000180      -0.00005898      -0.48675042
Li       5.15199051      16.87208720     -22.24919556        0      -0.59448642      -1.80144678      -0.09176504       0.00004412       0.00020300       0.00000920       0.00000265       0.00000141       0.00005134      -0.52166287
Li       7.04296763      22.64893935     -19.14013262        1       0.00180807      -0.00044795       0.11414127       0.00002487       0.00001218       0.00002531      -0.00000107       0.00000017      -0.00000067      -0.05013100
Li       3.16050171      19.70258518     -21.03828993        1       0.00180836      -0.00044796      -0.11414127       0.00002487       0.00001218       0.00002531       0.00000107      -0.00000017      -0.00000067      -0.05013100
P        3.16024015      22.86286726     -18.92427793        2      -0.01619732      -0.00243946       0.05852519       0.00004777       0.00003497       0.00004654       0.00000239      -0.00000119      -0.00000046      -0.12543968
S        5.39760759      18.81983361     -22.23076424        3      -0.57245978       2.10051695      -0.04622904       0.00005181       0.00023098       0.00001415       0.00000069       0.00000373      -0.00004829      -0.50072169
S        4.80663411      21.95572336     -17.94751647        3       0.52822020       1.83759574       0.04906773       0.00004704       0.00020074       0.00001301      -0.00000062       0.00000177       0.00004012      -0.52943955
S        3.16047548      22.20355680     -20.79502953        4       0.00094273       0.04007166      -0.00266555       0.00002219       0.00001229       0.00004814       0.00000754      -0.00000010      -0.00000062      -0.07304539
S        7.04302231      21.63247050     -21.36519052        5       0.00667204      -0.08087551      -0.08237653       0.00002736       0.00003514       0.00002107      -0.00000441      -0.00000045       0.00000026      -0.06836909
S        3.16055640      18.68611632     -18.81323203        5       0.00667233      -0.08087551       0.08237654       0.00002736       0.00003514       0.00002107       0.00000441       0.00000045       0.00000026      -0.06836910
Li       5.05067776      19.98699460     -22.25462576        0       0.64550067      -2.09297459       0.09788086       0.00004703       0.00023065       0.00000939      -0.00000279       0.00000180      -0.00005898      -0.48675042
Li       5.15199051      16.87208720     -26.57458084        0      -0.59448642      -1.80144678      -0.09176504       0.00004412       0.00020300       0.00000920       0.00000265       0.00000141       0.00005134      -0.52166287
Li       7.04296763      22.64893935     -23.46551790        1       0.00180807      -0.00044795       0.11414127       0.00002487       0.00001218       0.00002531      -0.00000107       0.00000017      -0.00000067      -0.05013100
Li       3.16050171      19.70258518     -25.36367521        1       0.00180836      -0.00044796      -0.11414127       0.00002487       0.00001218       0.00002531       0.00000107      -0.00000017      -0.00000067      -0.05013100
P        3.16024015      22.86286726     -23.24966321        2      -0.01619732      -0.00243946       0.05852519       0.00004777       0.00003497       0.00004654       0.00000239      -0.00000119      -0.00000046      -0.12543968
S        5.39760759      18.81983361     -26.55614952        3      -0.57245978       2.10051695      -0.04622904       0.00005181       0.00023098       0.00001415       0.00000069       0.00000373      -0.00004829      -0.50072169
S        4.80663411      21.95572336     -22.27290174        3       0.52822020       1.83759574       0.04906773       0.00004704       0.00020074       0.00001301      -0.00000062       0.00000177       0.00004012      -0.52943955
S        3.16047548      22.20355680     -25.12041481        4       0.00094273       0.04007166      -0.00266555       0.00002219       0.00001229       0.00004814       0.00000754      -0.00000010      -0.00000062      -0.07304539
S        7.04302231      21.63247050     -25.69057580        5       0.00667204      -0.08087551      -0.08237653       0.00002736       0.00003514       0.00002107      -0.00000441      -0.00000045       0.00000026      -0.06836909
S        3.16055640      18.68611632     -23.13861731        5       0.00667233      -0.08087551       0.08237654       0.00002736       0.00003514       0.00002107       0.00000441       0.00000045       0.00000026      -0.06836910
Li       5.05067776      19.98699460     -26.58001104        0       0.64550067      -2.09297459       0.09788086       0.00004703       0.00023065       0.00000939      -0.00000279       0.00000180      -0.00005898      -0.48675042
Li       5.15199051      16.87208720     -30.89996612        0      -0.59448634      -1.80144678      -0.09176502       0.00004412       0.00020300       0.00000920       0.00000265       0.00000141       0.00005134      -0.52166286
Li       7.04296763      22.64893935     -27.79090317        1       0.00180807      -0.00044795       0.11414127       0.00002487       0.00001218       0.00002531      -0.00000107       0.00000017      -0.00000067      -0.05013100
Li       3.16050171      19.70258518     -29.68906049        1       0.00180836      -0.00044795      -0.11414126       0.00002487       0.00001218       0.00002531       0.00000107      -0.00000017      -0.00000067      -0.05013100
P        3.16024015      22.86286726     -27.57504849        2      -0.01619732      -0.00243946       0.05852519       0.00004777       0.00003497       0.00004654       0.00000239      -0.00000119      -0.00000046      -0.12543968
S        5.39760759      18.81983361     -30.88153480        3      -0.57245988       2.10051695      -0.04622897       0.00005181       0.00023098       0.00001415       0.00000069       0.00000373      -0.00004829      -0.50072167
S        4.80663411      21.95572336     -26.59828702        3       0.52822020       1.83759574       0.04906773       0.00004704       0.00020074       0.00001301      -0.00000062       0.00000177       0.00004012      -0.52943955
S        3.16047548      22.20355680     -29.44580009        4       0.00094273       0.04007164      -0.00266549       0.00002219       0.00001229       0.00004814       0.00000754      -0.00000010      -0.00000062      -0.07304538
S        7.04302231      21.63247050     -30.01596107        5       0.00667204      -0.08087552      -0.08237653       0.00002736       0.00003514       0.00002107      -0.00000441      -0.00000045       0.00000026      -0.06836909
S        3.16055640      18.68611632     -27.46400259        5       0.00667233      -0.08087551       0.08237654       0.00002736       0.00003514       0.00002107       0.00000441       0.00000045       0.00000026      -0.06836910
Li       5.05067776      19.98699460     -30.90539632        0       0.64550066      -2.09297458       0.09788087       0.00004703       0.00023065       0.00000939      -0.00000279       0.00000180      -0.00005898      -0.48675041
Li       5.09918640      16.71455502     -35.25521422        0      -0.06065706       0.10129832      -0.42311529       0.00000918       0.00001544       0.00004335      -0.00000718       0.00000527      -0.00000087      -0.51785671
Li       7.04296763      22.64893930     -32.11628854        1       0.00180537      -0.00041092       0.11422527       0.00002487       0.00001218       0.00002530      -0.00000108       0.00000017      -0.00000067      -0.05011481
Li       3.16054159      19.70269965     -34.01317767        1       0.00639345       0.00943395      -0.02877808       0.00000909       0.00000939       0.00001765      -0.00000219      -0.00000131      -0.00000003      -0.02639408
P        3.16024015      22.86286696     -31.90043447        2      -0.01619747      -0.00290060       0.05735092       0.00004777       0.00003499       0.00004668       0.00000245      -0.00000119      -0.00000046      -0.12562349
S        5.34808374      18.98656563     -35.20999070        3       0.04187522      -0.02774821       0.02266176       0.00002700       0.00002318       0.00001378       0.00000503       0.00001151       0.00000338      -0.05484231
S        4.80663411      21.95572336     -30.92367230        3       0.52822027       1.83759568       0.04906773       0.00004704       0.00020074       0.00001301      -0.00000062       0.00000177       0.00004012      -0.52943954
S        3.16047186      22.20376009     -33.76923485        4       0.00004231       0.05206192       0.12908053       0.00000756       0.00001186       0.00003229       0.00000659       0.00000034      -0.00000035      -0.04407283
S        7.04287664      21.63211484     -34.34196906        5      -0.00492560      -0.10747074      -0.12784861       0.00001035       0.00002960       0.00003162       0.00000100       0.00000146       0.00000051      -0.06623320
S        3.16055640      18.68611639     -31.78938798        5       0.00667307      -0.08080536       0.08225164       0.00002736       0.00003515       0.00002108       0.00000440       0.00000045       0.00000026      -0.06839418
Li       1.22135595       7.54585624      -0.62493578        0       0.02579376       0.03178575       0.00527215       0.00001615       0.00002072       0.00000690       0.00000170       0.00000227      -0.00000035      -0.02939280
Li       5.10004021      26.03941531      -0.62374489        0       0.00680843       0.06958872       0.08785763       0.00002769       0.00001872       0.00001483       0.00000604       0.00000303       0.00000921      -0.05453921
Li       5.15199051      23.09069451      -4.94765445        0      -0.59448640      -1.80144677      -0.09176505       0.00004412       0.00020300       0.00000920       0.00000265       0.00000141       0.00005134      -0.52166287
Li       7.04288143      28.86757319      -1.84050552        1      -0.00502090       0.00358324      -0.01573955       0.00000881       0.00000922       0.00000969       0.00000113      -0.00000042      -0.00000013      -0.01979867
Li       3.16050171      25.92119244      -3.73674873        1       0.00181065      -0.00046272      -0.11410666       0.00002487       0.00001218       0.00002532       0.00000107      -0.00000017      -0.00000067      -0.05013761