32
Lattice="9.597374192128093 2.2281776388729786 -4.4408920985006257e-16 1.8890841921280959 8.76338763887298 -8.881784197001252e-16 -15.575874511754913 -18.371767355634365 19.565445732944724" Properties=species:S:1:pos:R:3:spacegroup_kinds:I:1:forces:R:3:stresses:R:6:energies:R:1 spacegroup="P m n 21" unit_cell=conventional occupancy="_JSON {\"0\": {\"Li\": 1.0}, \"1\": {\"Li\": 1.0}, \"2\": {\"P\": 1.0}, \"3\": {\"S\": 0.97}, \"4\": {\"S\": 0.98}, \"5\": {\"S\": 0.99}}" energy=-1.2620830826264493 stress="0.0019478538723982735 0.00024224122056411602 -0.0001598232879619072 0.00024224122056411602 0.0020514692985243894 -0.00010291518794810321 -0.0001598232879619072 -0.00010291518794810321 0.0019208228429265992" free_energy=-1.2620830826264493 pbc="T T T"
Li       1.11776910       2.36025771       6.65269008        1       0.01151556       0.01063829       0.04126622       0.00003228       0.00004591       0.00001824      -0.00000173      -0.00001128       0.00000045      -0.01701413
S        3.48058410       1.38886976       6.64524192        3       0.03486145       0.01775124       0.13372119       0.00004263       0.00000407       0.00007888       0.00000298       0.00003882      -0.00000819      -0.02760883
Li       1.33156648      -0.87789747       8.95947045        0       0.00202532      -0.02686804       0.01361765       0.00004795       0.00005455       0.00005874      -0.00000579      -0.00001088       0.00000894      -0.03128858
Li      -1.92996813      -0.17482307       7.02317239        0      -0.02113905      -0.02581511       0.06201962       0.00003279       0.00002446       0.00002612      -0.00001074      -0.00000874       0.00002806      -0.01637384
Li       0.19130575      -4.42857188       9.58397993        0      -0.02559303      -0.00092998       0.01598648       0.00004686       0.00005844       0.00005594      -0.00000655      -0.00000908       0.00000994      -0.03128858
Li      -3.06436598      -3.72676131       7.65116253        0       0.01020102      -0.00149561       0.06104945       0.00004464       0.00005928       0.00002929      -0.00001098      -0.00002089       0.00000545      -0.02669769
P        0.35864694      -2.95881768       6.00000000        2       0.02726777      -0.03123162       0.18552725       0.00008644       0.00005007       0.00007161      -0.00001993      -0.00000044       0.00006216      -0.04952322
P       -5.20678384      -0.77032778       8.49069227        2      -0.01070166       0.01963342       0.02515595       0.00013253       0.00016303       0.00013388       0.00000432      -0.00000065       0.00000429      -0.10259950
S        1.93720191      -2.10128247       7.00565980        3      -0.10518897      -0.05653618      -0.01818776       0.00007317       0.00004009       0.00005374       0.00003191       0.00003377       0.00001349      -0.03571882
S       -3.27068625      -1.45282973       8.33490829        3      -0.07328244       0.04286884      -0.01963385       0.00011362       0.00006616       0.00004254      -0.00000255      -0.00001489      -0.00001463      -0.04750182
S       -0.16476501       1.08911599       8.35145861        4      -0.04782531       0.08377107       0.11097527       0.00004595       0.00006907       0.00009697       0.00004217      -0.00002936      -0.00001709      -0.04491376
S       -0.67346377      -4.06555132       7.33664791        5       0.05583077       0.04827246      -0.07651449       0.00006853       0.00006789       0.00008270      -0.00003451      -0.00002948       0.00002529      -0.04670206
Li      -5.91533829      -6.02975848       7.77448217        1      -0.01752918       0.00675150       0.03197814       0.00003598       0.00003014       0.00002148      -0.00001254       0.00000805       0.00000540      -0.01469311
S       -3.98906979      -5.12082322       9.18510889        3       0.07426191      -0.04171307       0.01840310       0.00006958       0.00008703       0.00006571      -0.00002455       0.00000355      -0.00003176      -0.04750178
S       -7.10980277      -7.68024032       9.18716537        4       0.00327255      -0.13632121      -0.05501074       0.00003446       0.00012741       0.00005012       0.00003311      -0.00000350       0.00000087      -0.04491376
S       -6.19856396      -2.05077642       9.69633027        5       0.04942273       0.07587407      -0.05569823       0.00006651       0.00007814       0.00007447      -0.00003610      -0.00002493       0.00002845      -0.04670206
Li      -1.96239875      -1.27280489      10.52180554        1      -0.00566532       0.00827415       0.01254713       0.00003947       0.00004605       0.00003833      -0.00000008       0.00000074       0.00000144      -0.02144269
S        0.40041625      -2.24419284      10.51435738        3       0.06136348       0.01384373       0.06030188       0.00005226       0.00005891       0.00011115      -0.00000502       0.00002469       0.00000881      -0.04750173
Li      -1.74860136      -4.51096007      12.82858591        0       0.03329356       0.01901246      -0.03859580       0.00003864       0.00003450       0.00003277       0.00001703       0.00000468      -0.00000473      -0.01950564
Li      -5.01013598      -3.80788567      10.89228785        0      -0.02070889      -0.02196722       0.00012084       0.00004908       0.00005600       0.00005616      -0.00000732      -0.00001271       0.00000545      -0.03128861
Li      -2.88886210      -8.06163447      13.45309539        0       0.01444591      -0.00686984      -0.04856458       0.00002742       0.00000534       0.00003173      -0.00000326       0.00000800      -0.00001210      -0.01139569
Li      -6.14453383      -7.35982391      11.52027799        0      -0.00285875      -0.00583074       0.02948321       0.00004867       0.00005972       0.00005285      -0.00000774      -0.00001114       0.00000678      -0.03128860
P       -2.72152090      -6.59188028       9.86911546        2       0.00105588      -0.03101118      -0.01303878       0.00013765       0.00013698       0.00015479       0.00000837      -0.00001219      -0.00000373      -0.10259950
P       -8.28695169      -4.40339038      12.35980773        2      -0.01070166       0.01963342       0.02515595       0.00013253       0.00016303       0.00013388       0.00000432      -0.00000065       0.00000429      -0.10259950
S       -1.14296594      -5.73434507      10.87477526        3      -0.06038382      -0.01268802      -0.06153296       0.00009229       0.00005840       0.00007163       0.00001380       0.00001528       0.00003220      -0.04750176
S       -6.35085410      -5.08589233      12.20402375        3      -0.09046332       0.04050469      -0.04835294       0.00010643       0.00006603       0.00002245      -0.00000421      -0.00002690      -0.00001562      -0.04307326
S       -3.24493286      -2.54394661      12.22057407        4       0.01774234      -0.02252347      -0.03806383       0.00003194       0.00003227       0.00002462      -0.00000942       0.00000247       0.00000561      -0.01501780
S       -3.75363162      -7.69861392      11.20576337        5       0.05583077       0.04827246      -0.07651449       0.00006853       0.00006789       0.00008270      -0.00003451      -0.00002948       0.00002529      -0.04670206
Li      -8.99550614      -9.66282108      11.64359763        1      -0.00021344      -0.01520827      -0.00516244       0.00004101       0.00003823       0.00004461       0.00000114      -0.00000273      -0.00000097      -0.02144269
S       -7.06923763      -8.75388582      13.05422435        3       0.00575529       0.03487644      -0.07003514       0.00002477       0.00002434       0.00003363      -0.00001758      -0.00000382       0.00002120      -0.01621151
S      -10.18997062     -11.31330292      13.05628083        4      -0.00978722      -0.14065633      -0.08657698       0.00003043       0.00012697       0.00002656       0.00002987      -0.00001325      -0.00000047      -0.04032284
S       -9.27873181      -5.68383902      13.56544573        5       0.04389572       0.08768765      -0.11582629       0.00005280       0.00005107       0.00004254      -0.00003686      -0.00002289       0.00004766      -0.03314768
