32
Lattice="7.70829 0.0 0.0 0.0 6.53521 0.0 0.0 0.0 22.40257093541245" Properties=species:S:1:pos:R:3:spacegroup_kinds:I:1:forces:R:3:stresses:R:6:energies:R:1 spacegroup="P m n 21" unit_cell=conventional occupancy="_JSON {\"0\": {\"Li\": 1.0}, \"1\": {\"Li\": 1.0}, \"2\": {\"P\": 1.0}, \"3\": {\"S\": 0.97}, \"4\": {\"S\": 0.98}, \"5\": {\"S\": 0.99}}" energy=-1.3814654007617626 stress="0.0027749835210708266 -6.112317743433283e-10 -3.087622774770132e-10 -6.112317743433283e-10 0.003296334954438904 1.0235971943153672e-05 -3.087622774770132e-10 1.0235971943153672e-05 0.0029312561882603046" free_energy=-1.3814654007617626 pbc="T T T"
Li       5.78295110       4.37251736       7.19782094        0       0.01344452      -0.01339909       0.02347645       0.00005535       0.00006955       0.00009844       0.00000283      -0.00000028       0.00000330      -0.03128858
Li       1.92533890       4.37251736       7.19782094        0      -0.01344463      -0.01339902       0.02347635       0.00005535       0.00006955       0.00009844       0.00000283       0.00000028      -0.00000330      -0.03128861
Li       5.77948390       2.16269264      10.26607094        0      -0.01344461       0.01339909       0.02347642       0.00005535       0.00006955       0.00009844      -0.00000283       0.00000028       0.00000330      -0.03128858
Li       1.92880610       2.16269264      10.26607094        0       0.01344454       0.01339902       0.02347638       0.00005535       0.00006955       0.00009844      -0.00000283      -0.00000028      -0.00000330      -0.03128860
Li       3.85414500       5.58781719      10.07006799        1      -0.00000000       0.01495640       0.00585610       0.00005485       0.00005885       0.00005786      -0.00000583       0.00000000       0.00000000      -0.02144269
Li       0.00000077       0.94739281       7.00181799        1       0.00000010      -0.01495640       0.00585610       0.00005485       0.00005885       0.00005786       0.00000583      -0.00000000       0.00000000      -0.02144269
P        3.85414500       1.16412752       7.05219004        2      -0.00000000      -0.03225660       0.00960885       0.00018176       0.00021432       0.00019875       0.00001940       0.00000000      -0.00000000      -0.10259950
P        0.00000077       5.37108248      10.12044004        2       0.00000047       0.03225660       0.00960885       0.00018176       0.00021432       0.00019875      -0.00001940      -0.00000000      -0.00000000      -0.10259950
S        5.53727368       2.14500759       6.38622745        3      -0.08776031      -0.03597905       0.07480300       0.00011891       0.00008932       0.00002308      -0.00000699      -0.00002617       0.00004336      -0.03571882
S        2.17101632       2.14500759       6.38622745        3       0.08776021      -0.03597912       0.07480303       0.00011891       0.00008932       0.00002308      -0.00000699       0.00002617      -0.00004336      -0.03571884
S        6.02516132       4.39020241       9.45447745        3       0.07962655       0.03538505      -0.00097613       0.00011979       0.00008932       0.00009885       0.00000758       0.00003430       0.00004342      -0.04750173
S        1.68312868       4.39020241       9.45447745        3      -0.07962702       0.03538539      -0.00097590       0.00011979       0.00008932       0.00009885       0.00000758      -0.00003430      -0.00004342      -0.04750182
S        3.85414500       5.82942637       6.40098253        4      -0.00000000       0.14420877       0.08551268       0.00004460       0.00017758       0.00002606       0.00003906      -0.00000000       0.00000000      -0.03907777
S        0.00000077       0.70578363       9.46923253        4       0.00000007      -0.14018110       0.04438044       0.00004460       0.00017801       0.00007103      -0.00004347       0.00000000       0.00000000      -0.04491376
S        3.85414500       1.27477002       9.06825000        5      -0.00000000      -0.01758002      -0.10484615       0.00006314       0.00005561       0.00018477       0.00000764      -0.00000000      -0.00000000      -0.04670206
S        0.00000077       5.26043998       6.00000000        5       0.00000012       0.00825030       0.06515434       0.00006314       0.00005516       0.00003292       0.00000070       0.00000000      -0.00000000      -0.02035917
Li       5.78295110       4.37251736      13.33432094        0       0.01344452      -0.01339909       0.02347645       0.00005535       0.00006955       0.00009844       0.00000283      -0.00000028       0.00000330      -0.03128858
Li       1.92533890       4.37251736      13.33432094        0      -0.01344463      -0.01339902       0.02347635       0.00005535       0.00006955       0.00009844       0.00000283       0.00000028      -0.00000330      -0.03128861
Li       5.77948390       2.16269264      16.40257094        0      -0.00531114       0.01399296      -0.05230261       0.00005448       0.00006954       0.00002268      -0.00000224       0.00000841       0.00000324      -0.01950564
Li       1.92880610       2.16269264      16.40257094        0       0.00531106       0.01399289      -0.05230265       0.00005448       0.00006954       0.00002268      -0.00000224      -0.00000841      -0.00000324      -0.01950566
Li       3.85414500       5.58781719      16.20656799        1      -0.00000000       0.01092873      -0.03527615       0.00005485       0.00005842       0.00001289      -0.00001023       0.00000000       0.00000000      -0.01560670
Li       0.00000077       0.94739281      13.13831799        1       0.00000010      -0.01495640       0.00585610       0.00005485       0.00005885       0.00005786       0.00000583      -0.00000000       0.00000000      -0.02144269
P        3.85414500       1.16412752      13.18869004        2      -0.00000000      -0.03225660       0.00960885       0.00018176       0.00021432       0.00019875       0.00001940       0.00000000      -0.00000000      -0.10259950
P        0.00000077       5.37108248      16.25694004        2       0.00000047       0.04158632      -0.16039165       0.00018176       0.00021386       0.00004691      -0.00001107      -0.00000000      -0.00000000      -0.07625660
S        5.53727368       2.14500759      12.52272745        3      -0.07962684      -0.03538518      -0.00097603       0.00011979       0.00008932       0.00009885      -0.00000758      -0.00003430       0.00004342      -0.04750176
S        2.17101632       2.14500759      12.52272745        3       0.07962674      -0.03538525      -0.00097600       0.00011979       0.00008932       0.00009885      -0.00000758       0.00003430      -0.00004342      -0.04750178
S        6.02516132       4.39020241      15.59097745        3       0.07962655       0.03538505      -0.00097613       0.00011979       0.00008932       0.00009885       0.00000758       0.00003430       0.00004342      -0.04750173
S        1.68312868       4.39020241      15.59097745        3      -0.07962702       0.03538539      -0.00097590       0.00011979       0.00008932       0.00009885       0.00000758      -0.00003430      -0.00004342      -0.04750182
S        3.85414500       5.82942637      12.53748253        4      -0.00000000       0.14018110       0.04438044       0.00004460       0.00017801       0.00007103       0.00004347      -0.00000000       0.00000000      -0.04491376
S        0.00000077       0.70578363      15.60573253        4       0.00000007      -0.14018110       0.04438044       0.00004460       0.00017801       0.00007103      -0.00004347       0.00000000       0.00000000      -0.04491376
S        3.85414500       1.27477002      15.20475000        5      -0.00000000      -0.01758002      -0.10484615       0.00006314       0.00005561       0.00018477       0.00000764      -0.00000000      -0.00000000      -0.04670206
S        0.00000077       5.26043998      12.13650000        5       0.00000012       0.01758002      -0.10484615       0.00006314       0.00005561       0.00018477      -0.00000764       0.00000000      -0.00000000      -0.04670206
