32
Lattice="0.0 6.1365 0.0 7.70829 0.0 0.0 0.0 0.0 -20.650770558208038" Properties=species:S:1:pos:R:3:spacegroup_kinds:I:1:forces:R:3:stresses:R:6:energies:R:1 spacegroup="P m n 21" unit_cell=conventional occupancy="_JSON {\"0\": {\"Li\": 1.0}, \"1\": {\"Li\": 1.0}, \"2\": {\"P\": 1.0}, \"3\": {\"S\": 0.97}, \"4\": {\"S\": 0.98}, \"5\": {\"S\": 0.99}}" energy=70.69208799311171 stress="-0.09151029344993285 -2.2760758628524092e-10 7.0665012973309e-10 -2.2760758628524092e-10 -1.0528745698260227 1.0791138917589707e-15 7.0665012973309e-10 1.0791138917589707e-15 0.003611967605437273" free_energy=70.69208799311171 pbc="T T T"
Li       5.78295110       3.17842647      -6.00000000        0       0.01904418       0.04197490      -0.03737200       0.00006324       0.00010605       0.00002246       0.00001782       0.00000257      -0.00000265      -0.02317862
Li       1.92533890       3.17842647      -6.00000000        0      -0.01904430       0.04197481      -0.03737207       0.00006324       0.00010605       0.00002246       0.00001782      -0.00000257       0.00000265      -0.02317865
Li       5.77948390       0.11017647     -10.32538528        0     -96.26572050     318.12227689       6.87809152      -0.01188477      -0.13202208       0.00000995      -0.00289480       0.00086115       0.04001281       9.01207651
Li       1.92880610       0.11017647     -10.32538528        0      96.26572003     318.12227685       6.87809134      -0.01188477      -0.13202208       0.00000995      -0.00289480      -0.00086115      -0.04001281       9.01207641
Li       3.85414500       6.05067352      -7.21529983        1      -0.00000000       0.00585610      -0.01495640       0.00006337       0.00006684       0.00006799       0.00000674      -0.00000000       0.00000000      -0.02144269
Li       0.00000077       2.98242352      -9.11008545        1       0.00000032      -0.00903995      -0.11982668       0.00018410       0.00008213       0.00017795       0.00001497      -0.00000000      -0.00000000      -0.05354447
P        3.85414500       3.03279558      -9.32682016        2      -0.00000000       0.01426819      -0.09474241       0.00038787       0.00023362       0.00033767      -0.00001813       0.00000000       0.00000000      -0.13903328
P        0.00000077       6.10104558      -6.99856512        2       0.00000047       0.00960885      -0.03225660       0.00020999       0.00022962       0.00024761       0.00002242       0.00000000      -0.00000000      -0.10259950
S        5.53727368       2.36683298     -10.30770023        3     -96.38574694    -318.11017428       6.94133848      -0.01186132      -0.13203142       0.00003392       0.00291290       0.00085264      -0.04005220       9.00293486
S        2.17101632       2.36683298     -10.30770023        3      96.38574665    -318.11017429       6.94133845      -0.01186132      -0.13203142       0.00003392       0.00291290      -0.00085264       0.04005220       9.00293480
S        6.02516132       5.43508298      -6.01768505        3       0.08522622      -0.01947458      -0.08615613       0.00013769       0.00010652       0.00004531      -0.00002985      -0.00004378       0.00004195      -0.03939177
S        1.68312868       5.43508298      -6.01768505        3      -0.08522669      -0.01947435      -0.08615647       0.00013769       0.00010652       0.00004531      -0.00002985       0.00004378      -0.00004195      -0.03939187
S        3.85414500       2.38158807      -7.45690901        4      -0.00000000       0.04438044      -0.14018110       0.00005153       0.00008206       0.00020566      -0.00005022      -0.00000000      -0.00000000      -0.04491376
S        0.00000077       5.44983807      -8.86847627        4       0.00000028       0.05221590      -0.00431602       0.00016046       0.00008505       0.00033166       0.00003981      -0.00000000       0.00000000      -0.07570984
S        3.85414500       5.04885553      -9.43746266        5      -0.00000000      -0.08164929      -0.09143454       0.00020493       0.00025180       0.00014991      -0.00003655       0.00000000      -0.00000000      -0.07489208
S        0.00000077       1.98060553      -6.88792262        5       0.00000012      -0.10484615      -0.01758002       0.00007294       0.00021346       0.00006425       0.00000882       0.00000000       0.00000000      -0.04670206
Li       5.78295110       3.17842647     -10.32538528        0      96.26572010     318.12227693      -6.87809148      -0.01188477      -0.13202208       0.00000995       0.00289480       0.00086115      -0.04001281       9.01207650
Li       1.92533890       3.17842647     -10.32538528        0     -96.26572044     318.12227681      -6.87809138      -0.01188477      -0.13202208       0.00000995       0.00289480      -0.00086115       0.04001281       9.01207642
Li       5.77948390       0.11017647     -14.65077056        0      -0.01904428       0.04197487       0.03737200       0.00006324       0.00010605       0.00002246      -0.00001782       0.00000257       0.00000265      -0.02317863
Li       1.92880610       0.11017647     -14.65077056        0       0.01904420       0.04197483       0.03737207       0.00006324       0.00010605       0.00002246      -0.00001782      -0.00000257      -0.00000265      -0.02317865
Li       3.85414500       6.05067352     -11.54068511        1      -0.00000000      -0.00903995       0.11982668       0.00018410       0.00008213       0.00017795      -0.00001497      -0.00000000       0.00000000      -0.05354447
Li       0.00000077       2.98242352     -13.43547073        1       0.00000010       0.00585610       0.01495640       0.00006337       0.00006684       0.00006799      -0.00000674      -0.00000000      -0.00000000      -0.02144269
P        3.85414500       3.03279558     -13.65220544        2      -0.00000000       0.00960885       0.03225660       0.00020999       0.00022962       0.00024761      -0.00002242       0.00000000       0.00000000      -0.10259950
P        0.00000077       6.10104558     -11.32395040        2       0.00000085       0.01426819       0.09474241       0.00038787       0.00023362       0.00033767       0.00001813       0.00000000      -0.00000000      -0.13903328
S        5.53727368       2.36683298     -14.63308551        3      -0.08522650      -0.01947448       0.08615627       0.00013769       0.00010652       0.00004531       0.00002985      -0.00004378      -0.00004195      -0.03939181
S        2.17101632       2.36683298     -14.63308551        3       0.08522640      -0.01947445       0.08615633       0.00013769       0.00010652       0.00004531       0.00002985       0.00004378       0.00004195      -0.03939183
S        6.02516132       5.43508298     -10.34307033        3      96.38574646    -318.11017440      -6.94133841      -0.01186132      -0.13203142       0.00003392      -0.00291290       0.00085264       0.04005220       9.00293490
S        1.68312868       5.43508298     -10.34307033        3     -96.38574713    -318.11017417      -6.94133852      -0.01186132      -0.13203142       0.00003392      -0.00291290      -0.00085264      -0.04005220       9.00293476
S        3.85414500       2.38158807     -11.78229429        4      -0.00000000       0.05221590       0.00431602       0.00016046       0.00008505       0.00033166      -0.00003981      -0.00000000      -0.00000000      -0.07570984
S        0.00000077       5.44983807     -13.19386154        4       0.00000007       0.04438044       0.14018110       0.00005153       0.00008206       0.00020566       0.00005022      -0.00000000       0.00000000      -0.04491376
S        3.85414500       5.04885553     -13.76284794        5      -0.00000000      -0.10484615       0.01758002       0.00007294       0.00021346       0.00006425      -0.00000882       0.00000000      -0.00000000      -0.04670206
S        0.00000077       1.98060553     -11.21330790        5       0.00000034      -0.08164929       0.09143454       0.00020493       0.00025180       0.00014991       0.00003655       0.00000000       0.00000000      -0.07489208
48
Lattice="0.0 6.1365 0.0 7.70829 0.0 0.0 0.0 0.0 -24.97615583731206" Properties=species:S:1:pos:R:3:spacegroup_kinds:I:1:forces:R:3:stresses:R:6:energies:R:1 spacegroup="P m n 21" unit_cell=conventional occupancy="_JSON {\"0\": {\"Li\": 1.0}, \"1\": {\"Li\": 1.0}, \"2\": {\"P\": 1.0}, \"3\": {\"S\": 0.97}, \"4\": {\"S\": 0.98}, \"5\": {\"S\": 0.99}}" energy=142.065773830864 stress="-0.15264736754346914 -2.2891014253271766e-10 8.766085342536349e-10 -2.2891014253271766e-10 -1.7427562130255703 1.0248995422578947e-15 8.766085342536349e-10 1.0248995422578947e-15 0.004780547504823411" free_energy=142.065773830864 pbc="T T T"
Li       5.78295110       3.17842647      -6.00000000        0       0.01904418       0.04197490      -0.03737200       0.00005229       0.00008768       0.00001857       0.00001473       0.00000212      -0.00000219      -0.02317862
Li       1.92533890       3.17842647      -6.00000000        0      -0.01904430       0.04197481      -0.03737207       0.00005229       0.00008768       0.00001857       0.00001473      -0.00000212       0.00000219      -0.02317865
Li       5.77948390       0.11017647     -10.32538528        0     -96.26572050     318.12227689       6.87809152      -0.00982656      -0.10915842       0.00000823      -0.00239348       0.00071202       0.03308337       9.01207651
Li       1.92880610       0.11017647     -10.32538528        0      96.26572003     318.12227685       6.87809134      -0.00982656      -0.10915842       0.00000823      -0.00239348      -0.00071202      -0.03308337       9.01207641
Li       3.85414500       6.05067352      -7.21529983        1      -0.00000000       0.00585610      -0.01495640       0.00005239       0.00005527       0.00005622       0.00000557      -0.00000000       0.00000000      -0.02144269
Li       0.00000077       2.98242352      -9.11008545        1       0.00000032      -0.00903995      -0.11982668       0.00015222       0.00006790       0.00014713       0.00001238      -0.00000000      -0.00000000      -0.05354447
P        3.85414500       3.03279558      -9.32682016        2      -0.00000000       0.01426819      -0.09474241       0.00032070       0.00019316       0.00027919      -0.00001499       0.00000000       0.00000000      -0.13903328
P        0.00000077       6.10104558      -6.99856512        2       0.00000047       0.00960885      -0.03225660       0.00017362       0.00018986       0.00020473       0.00001853       0.00000000      -0.00000000      -0.10259950
S        5.53727368       2.36683298     -10.30770023        3     -96.38574694    -318.11017428       6.94133848      -0.00980717      -0.10916614       0.00002805       0.00240844       0.00070498      -0.03311593       9.00293486
S        2.17101632       2.36683298     -10.30770023        3      96.38574665    -318.11017429       6.94133845      -0.00980717      -0.10916614       0.00002805       0.00240844      -0.00070498       0.03311593       9.00293480
S        6.02516132       5.43508298      -6.01768505        3       0.08522622      -0.01947458      -0.08615613       0.00011384       0.00008807       0.00003746      -0.00002468      -0.00003620       0.00003469      -0.03939177
S        1.68312868       5.43508298      -6.01768505        3      -0.08522669      -0.01947435      -0.08615647       0.00011384       0.00008807       0.00003746      -0.00002468       0.00003620      -0.00003469      -0.03939187
S        3.85414500       2.38158807      -7.45690901        4      -0.00000000       0.04438044      -0.14018110       0.00004260       0.00006785       0.00017004      -0.00004152      -0.00000000      -0.00000000      -0.04491376
S        0.00000077       5.44983807      -8.86847627        4       0.00000028       0.05221590      -0.00431602       0.00013267       0.00007032       0.00027422       0.00003292      -0.00000000       0.00000000      -0.07570984
S        3.85414500       5.04885553      -9.43746266        5      -0.00000000      -0.08164929      -0.09143454       0.00016944       0.00020819       0.00012395      -0.00003022       0.00000000      -0.00000000      -0.07489208
S        0.00000077       1.98060553      -6.88792262        5       0.00000012      -0.10484615      -0.01758002       0.00006031       0.00017649       0.00005312       0.00000729       0.00000000       0.00000000      -0.04670206
Li       5.78295110       3.17842647     -10.32538528        0      96.26572010     318.12227693      -6.87809148      -0.00982656      -0.10915842       0.00000823       0.00239348       0.00071202      -0.03308337       9.01207650
Li       1.92533890       3.17842647     -10.32538528        0     -96.26572044     318.12227681      -6.87809138      -0.00982656      -0.10915842       0.00000823       0.00239348      -0.00071202       0.03308337       9.01207642
Li       5.77948390       0.11017647     -14.65077056        0     -96.26572050     318.12227689       6.87809152      -0.00982656      -0.10915842       0.00000823      -0.00239348       0.00071202       0.03308337       9.01207651
Li       1.92880610       0.11017647     -14.65077056        0      96.26572003     318.12227685       6.87809134      -0.00982656      -0.10915842       0.00000823      -0.00239348      -0.00071202      -0.03308337       9.01207641
Li       3.85414500       6.05067352     -11.54068511        1      -0.00000000      -0.00903995       0.11982668       0.00015222       0.00006790       0.00014713      -0.00001238      -0.00000000       0.00000000      -0.05354447
Li       0.00000077       2.98242352     -13.43547073        1       0.00000032      -0.00903995      -0.11982668       0.00015222       0.00006790       0.00014713       0.00001238      -0.00000000      -0.00000000      -0.05354447
P        3.85414500       3.03279558     -13.65220544        2      -0.00000000       0.01426819      -0.09474241       0.00032070       0.00019316       0.00027919      -0.00001499       0.00000000       0.00000000      -0.13903328
P        0.00000077       6.10104558     -11.32395040        2       0.00000085       0.01426819       0.09474241       0.00032070       0.00019316       0.00027919       0.00001499       0.00000000      -0.00000000      -0.13903328
S        5.53727368       2.36683298     -14.63308551        3     -96.38574694    -318.11017428       6.94133848      -0.00980717      -0.10916614       0.00002805       0.00240844       0.00070498      -0.03311593       9.00293486
S        2.17101632       2.36683298     -14.63308551        3      96.38574665    -318.11017429       6.94133845      -0.00980717      -0.10916614       0.00002805       0.00240844      -0.00070498       0.03311593       9.00293480
S        6.02516132       5.43508298     -10.34307033        3      96.38574646    -318.11017440      -6.94133841      -0.00980717      -0.10916614       0.00002805      -0.00240844       0.00070498       0.03311593       9.00293490
S        1.68312868       5.43508298     -10.34307033        3     -96.38574713    -318.11017417      -6.94133852      -0.00980717      -0.10916614       0.00002805      -0.00240844      -0.00070498      -0.03311593       9.00293476
S        3.85414500       2.38158807     -11.78229429        4      -0.00000000       0.05221590       0.00431602       0.00013267       0.00007032       0.00027422      -0.00003292      -0.00000000      -0.00000000      -0.07570984
S        0.00000077       5.44983807     -13.19386154        4       0.00000028       0.05221590      -0.00431602       0.00013267       0.00007032       0.00027422       0.00003292      -0.00000000       0.00000000      -0.07570984
S        3.85414500       5.04885553     -13.76284794        5      -0.00000000      -0.08164929      -0.09143454       0.00016944       0.00020819       0.00012395      -0.00003022       0.00000000      -0.00000000      -0.07489208
S        0.00000077       1.98060553     -11.21330790        5       0.00000034      -0.08164929       0.09143454       0.00016944       0.00020819       0.00012395       0.00003022       0.00000000       0.00000000      -0.07489208
Li       5.78295110       3.17842647     -14.65077056        0      96.26572010     318.12227693      -6.87809148      -0.00982656      -0.10915842       0.00000823       0.00239348       0.00071202      -0.03308337       9.01207650
Li       1.92533890       3.17842647     -14.65077056        0     -96.26572044     318.12227681      -6.87809138      -0.00982656      -0.10915842       0.00000823       0.00239348      -0.00071202       0.03308337       9.01207642
Li       5.77948390       0.11017647     -18.97615584        0      -0.01904428       0.04197487       0.03737200       0.00005229       0.00008768       0.00001857      -0.00001473       0.00000212       0.00000219      -0.02317863
Li       1.92880610       0.11017647     -18.97615584        0       0.01904420       0.04197483       0.03737207       0.00005229       0.00008768       0.00001857      -0.00001473      -0.00000212      -0.00000219      -0.02317865
Li       3.85414500       6.05067352     -15.86607038        1      -0.00000000      -0.00903995       0.11982668       0.00015222       0.00006790       0.00014713      -0.00001238      -0.00000000       0.00000000      -0.05354447
Li       0.00000077       2.98242352     -17.76085601        1       0.00000010       0.00585610       0.01495640       0.00005239       0.00005527       0.00005622      -0.00000557      -0.00000000      -0.00000000      -0.02144269
P        3.85414500       3.03279558     -17.97759071        2      -0.00000000       0.00960885       0.03225660       0.00017362       0.00018986       0.00020473      -0.00001853       0.00000000       0.00000000      -0.10259950
P        0.00000077       6.10104558     -15.64933568        2       0.00000085       0.01426819       0.09474241       0.00032070       0.00019316       0.00027919       0.00001499       0.00000000      -0.00000000      -0.13903328
S        5.53727368       2.36683298     -18.95847079        3      -0.08522650      -0.01947448       0.08615627       0.00011384       0.00008807       0.00003746       0.00002468      -0.00003620      -0.00003469      -0.03939181
S        2.17101632       2.36683298     -18.95847079        3       0.08522640      -0.01947445       0.08615633       0.00011384       0.00008807       0.00003746       0.00002468       0.00003620       0.00003469      -0.03939183
S        6.02516132       5.43508298     -14.66845561        3      96.38574646    -318.11017440      -6.94133841      -0.00980717      -0.10916614       0.00002805      -0.00240844       0.00070498       0.03311593       9.00293490
S        1.68312868       5.43508298     -14.66845561        3     -96.38574713    -318.11017417      -6.94133852      -0.00980717      -0.10916614       0.00002805      -0.00240844      -0.00070498      -0.03311593       9.00293476
S        3.85414500       2.38158807     -16.10767957        4      -0.00000000       0.05221590       0.00431602       0.00013267       0.00007032       0.00027422      -0.00003292      -0.00000000      -0.00000000      -0.07570984
S        0.00000077       5.44983807     -17.51924682        4       0.00000007       0.04438044       0.14018110       0.00004260       0.00006785       0.00017004       0.00004152      -0.00000000       0.00000000      -0.04491376
S        3.85414500       5.04885553     -18.08823322        5      -0.00000000      -0.10484615       0.01758002       0.00006031       0.00017649       0.00005312      -0.00000729       0.00000000      -0.00000000      -0.04670206
S        0.00000077       1.98060553     -15.53869318        5       0.00000034      -0.08164929       0.09143454       0.00016944       0.00020819       0.00012395       0.00003022       0.00000000       0.00000000      -0.07489208
64
Lattice="0.0 6.1365 0.0 7.70829 0.0 0.0 0.0 0.0 -29.30154111641608" Properties=species:S:1:pos:R:3:spacegroup_kinds:I:1:forces:R:3:stresses:R:6:energies:R:1 spacegroup="P m n 21" unit_cell=conventional occupancy="_JSON {\"0\": {\"Li\": 1.0}, \"1\": {\"Li\": 1.0}, \"2\": {\"P\": 1.0}, \"3\": {\"S\": 0.97}, \"4\": {\"S\": 0.98}, \"5\": {\"S\": 0.99}}" energy=213.43945966861625 stress="-0.19573478348141277 -2.298281928979883e-10 9.96389674280751e-10 -2.298281928979883e-10 -2.2289622958193425 5.044716253379189e-15 9.96389674280751e-10 5.044716253379189e-15 0.0056041245066363295" free_energy=213.43945966861625 pbc="T T T"
Li       5.78295110       3.17842647      -6.00000000        0       0.01904418       0.04197490      -0.03737200       0.00004457       0.00007474       0.00001583       0.00001256       0.00000181      -0.00000187      -0.02317862
Li       1.92533890       3.17842647      -6.00000000        0      -0.01904430       0.04197481      -0.03737207       0.00004457       0.00007474       0.00001583       0.00001256      -0.00000181       0.00000187      -0.02317865
Li       5.77948390       0.11017647     -10.32538528        0     -96.26572050     318.12227689       6.87809152      -0.00837600      -0.09304486       0.00000702      -0.00204016       0.00060691       0.02819973       9.01207651
Li       1.92880610       0.11017647     -10.32538528        0      96.26572003     318.12227685       6.87809134      -0.00837600      -0.09304486       0.00000702      -0.00204016      -0.00060691      -0.02819973       9.01207641
Li       3.85414500       6.05067352      -7.21529983        1      -0.00000000       0.00585610      -0.01495640       0.00004466       0.00004711       0.00004792       0.00000475      -0.00000000       0.00000000      -0.02144269
Li       0.00000077       2.98242352      -9.11008545        1       0.00000032      -0.00903995      -0.11982668       0.00012975       0.00005788       0.00012541       0.00001055      -0.00000000      -0.00000000      -0.05354447
P        3.85414500       3.03279558      -9.32682016        2      -0.00000000       0.01426819      -0.09474241       0.00027336       0.00016465       0.00023798      -0.00001278       0.00000000       0.00000000      -0.13903328
P        0.00000077       6.10104558      -6.99856512        2       0.00000047       0.00960885      -0.03225660       0.00014799       0.00016183       0.00017451       0.00001580       0.00000000      -0.00000000      -0.10259950
S        5.53727368       2.36683298     -10.30770023        3     -96.38574694    -318.11017428       6.94133848      -0.00835947      -0.09305144       0.00002391       0.00205292       0.00060092      -0.02822748       9.00293486
S        2.17101632       2.36683298     -10.30770023        3      96.38574665    -318.11017429       6.94133845      -0.00835947      -0.09305144       0.00002391       0.00205292      -0.00060092       0.02822748       9.00293480
S        6.02516132       5.43508298      -6.01768505        3       0.08522622      -0.01947458      -0.08615613       0.00009704       0.00007507       0.00003193      -0.00002104      -0.00003086       0.00002957      -0.03939177
S        1.68312868       5.43508298      -6.01768505        3      -0.08522669      -0.01947435      -0.08615647       0.00009704       0.00007507       0.00003193      -0.00002104       0.00003086      -0.00002957      -0.03939187
S        3.85414500       2.38158807      -7.45690901        4      -0.00000000       0.04438044      -0.14018110       0.00003632       0.00005783       0.00014494      -0.00003539      -0.00000000      -0.00000000      -0.04491376
S        0.00000077       5.44983807      -8.86847627        4       0.00000028       0.05221590      -0.00431602       0.00011309       0.00005994       0.00023374       0.00002806      -0.00000000       0.00000000      -0.07570984
S        3.85414500       5.04885553      -9.43746266        5      -0.00000000      -0.08164929      -0.09143454       0.00014443       0.00017746       0.00010565      -0.00002576       0.00000000      -0.00000000      -0.07489208
S        0.00000077       1.98060553      -6.88792262        5       0.00000012      -0.10484615      -0.01758002       0.00005141       0.00015044       0.00004528       0.00000622       0.00000000       0.00000000      -0.04670206
Li       5.78295110       3.17842647     -10.32538528        0      96.26572010     318.12227693      -6.87809148      -0.00837600      -0.09304486       0.00000702       0.00204016       0.00060691      -0.02819973       9.01207650
Li       1.92533890       3.17842647     -10.32538528        0     -96.26572044     318.12227681      -6.87809138      -0.00837600      -0.09304486       0.00000702       0.00204016      -0.00060691       0.02819973       9.01207642
Li       5.77948390       0.11017647     -14.65077056        0     -96.26572050     318.12227689       6.87809152      -0.00837600      -0.09304486       0.00000702      -0.00204016       0.00060691       0.02819973       9.01207651
Li       1.92880610       0.11017647     -14.65077056        0      96.26572003     318.12227685       6.87809134      -0.00837600      -0.09304486       0.00000702      -0.00204016      -0.00060691      -0.02819973       9.01207641
Li       3.85414500       6.05067352     -11.54068511        1      -0.00000000      -0.00903995       0.11982668       0.00012975       0.00005788       0.00012541      -0.00001055      -0.00000000       0.00000000      -0.05354447
Li       0.00000077       2.98242352     -13.43547073        1       0.00000032      -0.00903995      -0.11982668       0.00012975       0.00005788       0.00012541       0.00001055      -0.00000000      -0.00000000      -0.05354447
P        3.85414500       3.03279558     -13.65220544        2      -0.00000000       0.01426819      -0.09474241       0.00027336       0.00016465       0.00023798      -0.00001278       0.00000000       0.00000000      -0.13903328
P        0.00000077       6.10104558     -11.32395040        2       0.00000085       0.01426819       0.09474241       0.00027336       0.00016465       0.00023798       0.00001278       0.00000000      -0.00000000      -0.13903328
S        5.53727368       2.36683298     -14.63308551        3     -96.38574694    -318.11017428       6.94133848      -0.00835947      -0.09305144       0.00002391       0.00205292       0.00060092      -0.02822748       9.00293486
S        2.17101632       2.36683298     -14.63308551        3      96.38574665    -318.11017429       6.94133845      -0.00835947      -0.09305144       0.00002391       0.00205292      -0.00060092       0.02822748       9.00293480
S        6.02516132       5.43508298     -10.34307033        3      96.38574646    -318.11017440      -6.94133841      -0.00835947      -0.09305144       0.00002391      -0.00205292       0.00060092       0.02822748       9.00293490
S        1.68312868       5.43508298     -10.34307033        3     -96.38574713    -318.11017417      -6.94133852      -0.00835947      -0.09305144       0.00002391      -0.00205292      -0.00060092      -0.02822748       9.00293476
S        3.85414500       2.38158807     -11.78229429        4      -0.00000000       0.05221590       0.00431602       0.00011309       0.00005994       0.00023374      -0.00002806      -0.00000000      -0.00000000      -0.07570984
S        0.00000077       5.44983807     -13.19386154        4       0.00000028       0.05221590      -0.00431602       0.00011309       0.00005994       0.00023374       0.00002806      -0.00000000       0.00000000      -0.07570984
S        3.85414500       5.04885553     -13.76284794        5      -0.00000000      -0.08164929      -0.09143454       0.00014443       0.00017746       0.00010565      -0.00002576       0.00000000      -0.00000000      -0.07489208
S        0.00000077       1.98060553     -11.21330790        5       0.00000034      -0.08164929       0.09143454       0.00014443       0.00017746       0.00010565       0.00002576       0.00000000       0.00000000      -0.07489208
Li       5.78295110       3.17842647     -14.65077056        0      96.26572010     318.12227693      -6.87809148      -0.00837600      -0.09304486       0.00000702       0.00204016       0.00060691      -0.02819973       9.01207650
Li       1.92533890       3.17842647     -14.65077056        0     -96.26572044     318.12227681      -6.87809138      -0.00837600      -0.09304486       0.00000702       0.00204016      -0.00060691       0.02819973       9.01207642
Li       5.77948390       0.11017647     -18.97615584        0     -96.26572050     318.12227689       6.87809152      -0.00837600      -0.09304486       0.00000702      -0.00204016       0.00060691       0.02819973       9.01207651
Li       1.92880610       0.11017647     -18.97615584        0      96.26572003     318.12227685       6.87809134      -0.00837600      -0.09304486       0.00000702      -0.00204016      -0.00060691      -0.02819973       9.01207641
Li       3.85414500       6.05067352     -15.86607038        1      -0.00000000      -0.00903995       0.11982668       0.00012975       0.00005788       0.00012541      -0.00001055      -0.00000000       0.00000000      -0.05354447
Li       0.00000077       2.98242352     -17.76085601        1       0.00000032      -0.00903995      -0.11982668       0.00012975       0.00005788       0.00012541       0.00001055      -0.00000000      -0.00000000      -0.05354447
P        3.85414500       3.03279558     -17.97759071        2      -0.00000000       0.01426819      -0.09474241       0.00027336       0.00016465       0.00023798      -0.00001278       0.00000000       0.00000000      -0.13903328
P        0.00000077       6.10104558     -15.64933568        2       0.00000085       0.01426819       0.09474241       0.00027336       0.00016465       0.00023798       0.00001278       0.00000000      -0.00000000      -0.13903328