32
Lattice="0.0 6.53521 0.0 -6.1365 0.0 0.0 0.0 0.0 25.733451321350884" Properties=species:S:1:pos:R:3:spacegroup_kinds:I:1:forces:R:3:stresses:R:6:energies:R:1 spacegroup="P m n 21" unit_cell=conventional occupancy="_JSON {\"0\": {\"Li\": 1.0}, \"1\": {\"Li\": 1.0}, \"2\": {\"P\": 1.0}, \"3\": {\"S\": 0.97}, \"4\": {\"S\": 0.98}, \"5\": {\"S\": 0.99}}" energy=-1.4149457753674965 stress="0.0038963364602394275 -3.186128324357856e-05 -3.254831110056037e-05 -3.186128324357856e-05 0.003478390316235613 -7.774828350436715e-05 -3.254831110056037e-05 -7.774828350436715e-05 0.0026618336875947335" free_energy=-1.4149457753674965 pbc="T T T"
Li      -3.17842647       4.37251736       6.24567742        0      -0.03425738      -0.03311054       0.03954057       0.00010349       0.00006214       0.00003614       0.00002203       0.00001038      -0.00001071      -0.02669767
Li      -3.17842647       4.37251736      10.09635522        0      -0.02347635      -0.01339902      -0.01344463       0.00010765       0.00007605       0.00006053      -0.00000361      -0.00000031      -0.00000310      -0.03128861
Li      -0.11017647       2.16269264       6.24221022        0      -0.04649966       0.03046580       0.02356221       0.00009429       0.00006871       0.00002601      -0.00001231       0.00002117       0.00001300      -0.02448379
Li      -0.11017647       2.16269264      10.09982242        0      -0.02347638       0.01339902       0.01344454       0.00010765       0.00007605       0.00006053      -0.00000361       0.00000031       0.00000310      -0.03128860
Li      -6.05067352       5.58781719      12.02516132        1      -0.00585610       0.01495640       0.00000000       0.00006327       0.00006435       0.00005998      -0.00000000       0.00000000       0.00000638      -0.02144269
Li      -2.98242352       0.94739281       8.17101709        1      -0.00585610      -0.01495640       0.00000010       0.00006327       0.00006435       0.00005998       0.00000000       0.00000000      -0.00000638      -0.02144269
P       -3.03279558       1.16412752      12.02516132        2      -0.00960885      -0.03225660      -0.00000000       0.00021735       0.00023437       0.00019876      -0.00000000      -0.00000000      -0.00002122      -0.10259950
P       -6.10104558       5.37108248       8.17101709        2      -0.00960885       0.03225660       0.00000047       0.00021735       0.00023437       0.00019876      -0.00000000       0.00000000       0.00002122      -0.10259950
S       -2.36683298       2.14500759       6.00000000        3       0.04919645       0.03563749       0.04224363       0.00009254       0.00006392       0.00003161      -0.00001043      -0.00000181      -0.00001462      -0.02432144
S       -2.36683298       2.14500759      10.34203264        3       0.00097600      -0.03538525       0.07962674       0.00010810       0.00009768       0.00013099      -0.00004749      -0.00003751       0.00000829      -0.04750178
S       -5.43508298       4.39020241       6.48788764        3       0.00906028       0.01965756       0.10813709       0.00010569       0.00008855       0.00010100       0.00006403      -0.00004601      -0.00000360      -0.04307317
S       -5.43508298       4.39020241       9.85414500        3       0.00097590       0.03538539      -0.07962702       0.00010810       0.00009768       0.00013099      -0.00004749       0.00003751      -0.00000829      -0.04750182
S       -2.38158807       5.82942637      12.02516132        4      -0.04438044       0.14018110      -0.00000000       0.00007767       0.00019466       0.00004877       0.00000000       0.00000000      -0.00004753      -0.04491376
S       -5.44983807       0.70578363       8.17101709        4      -0.04438044      -0.14018110       0.00000007       0.00007767       0.00019466       0.00004877       0.00000000      -0.00000000       0.00004753      -0.04491376
S       -5.04885553       1.27477002      12.02516132        5       0.10484615      -0.01758002      -0.00000000       0.00020205       0.00006082       0.00006904      -0.00000000       0.00000000      -0.00000835      -0.04670206
S       -1.98060553       5.26043998       8.17101709        5       0.10484615       0.01758002       0.00000012       0.00020205       0.00006082       0.00006904      -0.00000000      -0.00000000       0.00000835      -0.04670206
Li      -3.17842647       4.37251736      13.95396742        0      -0.02347645      -0.01339909       0.01344452       0.00010765       0.00007605       0.00006053       0.00000361       0.00000031      -0.00000310      -0.03128858
Li      -3.17842647       4.37251736      17.80464522        0      -0.02347635      -0.01339902      -0.01344463       0.00010765       0.00007605       0.00006053      -0.00000361      -0.00000031      -0.00000310      -0.03128861
Li      -0.11017647       2.16269264      13.95050022        0      -0.02347642       0.01339909      -0.01344461       0.00010765       0.00007605       0.00006053       0.00000361      -0.00000031       0.00000310      -0.03128858
Li      -0.11017647       2.16269264      17.80811242        0      -0.02347638       0.01339902       0.01344454       0.00010765       0.00007605       0.00006053      -0.00000361       0.00000031       0.00000310      -0.03128860
Li      -6.05067352       5.58781719      19.73345132        1      -0.01394024       0.03068389      -0.02851054       0.00006086       0.00005523       0.00002999       0.00001654      -0.00000850       0.00001107      -0.01701413
Li      -2.98242352       0.94739281      15.87930709        1      -0.00585610      -0.01495640       0.00000010       0.00006327       0.00006435       0.00005998       0.00000000       0.00000000      -0.00000638      -0.02144269
P       -3.03279558       1.16412752      19.73345132        2      -0.05782927      -0.10327928      -0.12187046       0.00020179       0.00020062       0.00009938      -0.00005792      -0.00003932      -0.00004413      -0.07941918
P       -6.10104558       5.37108248      15.87930709        2      -0.00960885       0.03225660       0.00000047       0.00021735       0.00023437       0.00019876      -0.00000000       0.00000000       0.00002122      -0.10259950
S       -2.36683298       2.14500759      13.70829000        3       0.00097603      -0.03538518      -0.07962684       0.00010810       0.00009768       0.00013099       0.00004749       0.00003751       0.00000829      -0.04750176
S       -2.36683298       2.14500759      18.05032264        3       0.00097600      -0.03538525       0.07962674       0.00010810       0.00009768       0.00013099      -0.00004749      -0.00003751       0.00000829      -0.04750178
S       -5.43508298       4.39020241      14.19617764        3       0.00097613       0.03538505       0.07962655       0.00010810       0.00009768       0.00013099       0.00004749      -0.00003751      -0.00000829      -0.04750173
S       -5.43508298       4.39020241      17.56243500        3       0.00097590       0.03538539      -0.07962702       0.00010810       0.00009768       0.00013099      -0.00004749       0.00003751      -0.00000829      -0.04750182
S       -2.38158807       5.82942637      19.73345132        4      -0.03359950       0.15989255      -0.02609606       0.00007351       0.00018075       0.00002439       0.00001842       0.00001007      -0.00005514      -0.04032285
S       -5.44983807       0.70578363      15.87930709        4      -0.04438044      -0.14018110       0.00000007       0.00007767       0.00019466       0.00004877       0.00000000      -0.00000000       0.00004753      -0.04491376
S       -5.04885553       1.27477002      19.73345132        5       0.12786940      -0.03464673      -0.03700682       0.00018869       0.00005347       0.00003452      -0.00001592       0.00002148       0.00000155      -0.03989727
S       -1.98060553       5.26043998      15.87930709        5       0.10484615       0.01758002       0.00000012       0.00020205       0.00006082       0.00006904      -0.00000000      -0.00000000       0.00000835      -0.04670206
