32
Lattice="-3.968356014304621 -4.680681872733111 -3.0678022525775424e-32 7.708289999999999 -6.53521 8.881784197001251e-16 19.272795478353448 -16.339780384247383 21.421892163200067" Properties=species:S:1:pos:R:3:spacegroup_kinds:I:1:forces:R:3:stresses:R:6:energies:R:1 spacegroup="P m n 21" unit_cell=conventional occupancy="_JSON {\"0\": {\"Li\": 1.0}, \"1\": {\"Li\": 1.0}, \"2\": {\"P\": 1.0}, \"3\": {\"S\": 0.97}, \"4\": {\"S\": 0.98}, \"5\": {\"S\": 0.99}}" energy=-1.3405747899649108 stress="0.0026293660645902374 0.0002883692037526674 -0.0002376043367916778 0.0002883692037526674 0.002725013631877036 0.0002014448211410779 -0.0002376043367916778 0.0002014448211410779 0.0020611299393123723" free_energy=-1.3405747899649108 pbc="T T T"
Li       6.40438017      -9.59673736       6.56780638        0      -0.05665859      -0.00699405       0.01619037       0.00004146       0.00006862       0.00003092      -0.00000310       0.00001717       0.00002100      -0.02317865
Li       5.06967869     -12.23074961       8.74211114        1      -0.01116446       0.00178790       0.01140816       0.00004533       0.00005183       0.00004857       0.00000397       0.00000116       0.00000004      -0.02144269
P        2.90165431     -10.45870342       6.08439377        2      -0.01743586      -0.06103318       0.15758869       0.00015654       0.00015469       0.00007857       0.00006486      -0.00000552       0.00000131      -0.07941923
S        4.79540172     -11.19115748       6.42466317        3      -0.07948932       0.09292370       0.01060233       0.00013083       0.00005209       0.00002996      -0.00001582       0.00002361      -0.00000679      -0.03939187
S        7.32322858      -9.33107495       8.92640116        4      -0.09784608       0.02477150       0.10692465       0.00009841       0.00004721       0.00010383       0.00001467      -0.00006085      -0.00000840      -0.04491376
S        5.62083912      -7.36206337       6.00000000        5       0.08713147       0.09376873       0.05035878       0.00007580       0.00011596       0.00002318      -0.00000293      -0.00001466       0.00004807      -0.03989728
Li       8.64875474     -11.49955356       9.06244967        0      -0.00075042      -0.03014204      -0.00152599       0.00006537       0.00006755       0.00005681       0.00000227      -0.00000528       0.00001722      -0.03128858
Li      11.72093962     -10.08164204       7.37463975        0      -0.03138948      -0.03434981       0.03847534       0.00006188       0.00005488       0.00003007       0.00002558      -0.00000181       0.00001565      -0.02448379
Li      13.96531419     -11.98445824       9.86928304        0      -0.01396887      -0.01893514       0.01891457       0.00006552       0.00007294       0.00005127       0.00000566      -0.00000360       0.00001398      -0.03128860
Li      11.58516274     -13.73212150       7.69497878        1       0.00359047      -0.01072155      -0.01140809       0.00005165       0.00004552       0.00004857      -0.00000180      -0.00000372       0.00000108      -0.02144269
P       13.68803785     -15.58101135      10.35269615        2       0.00969712      -0.02081883      -0.02460407       0.00017769       0.00015713       0.00017050      -0.00000077      -0.00001854       0.00000316      -0.10259950
S       10.12940792     -11.69085379       7.20451761        3       0.03881326       0.03159138       0.05450102       0.00006130       0.00005364       0.00003117       0.00000156      -0.00001665       0.00001525      -0.02432144
S       12.65562029     -13.83261654      10.01242625        3       0.06441255      -0.05333041       0.02450259       0.00008316       0.00012814       0.00005031      -0.00001498      -0.00000387      -0.00002570      -0.04750178
S        7.32161409     -13.33292022       9.23257181        3       0.02950418      -0.02373437       0.07848328       0.00004903       0.00008948       0.00012309      -0.00003028      -0.00000102       0.00001156      -0.04750173
S       10.10871021     -15.71520865       7.51068876        4       0.04044618      -0.09247486      -0.10692460       0.00005130       0.00009433       0.00010383       0.00005763      -0.00002443      -0.00001621      -0.04491376
S       12.32971500     -17.07251269      10.43708992        5       0.07647355       0.07262065      -0.01340935       0.00009943       0.00010849       0.00004992      -0.00000581      -0.00000080       0.00005297      -0.04670206
Li      10.88909485     -13.39894929      11.55260863        0      -0.01639461      -0.01687852      -0.01891463       0.00006823       0.00007023       0.00005127       0.00000263      -0.00000618       0.00001443      -0.03128861
Li       9.55439337     -16.03296154      13.72691338        1      -0.01116446       0.00178790       0.01140816       0.00004533       0.00005183       0.00004857       0.00000397       0.00000116       0.00000004      -0.02144269
P        7.38636899     -14.26091535      11.06919601        2      -0.02212456       0.00616009       0.02460438       0.00015666       0.00017816       0.00017050       0.00001841      -0.00000228      -0.00000033      -0.10259950
S        9.28011640     -14.99336941      11.40946541        3      -0.06315052       0.05481944      -0.02450267       0.00013523       0.00007607       0.00005031       0.00000627       0.00001414      -0.00001707      -0.04750182
S       11.80794326     -13.13328688      13.91120341        4      -0.09784608       0.02477150       0.10692465       0.00009841       0.00004721       0.00010383       0.00001467      -0.00006085      -0.00000840      -0.04491376
S       10.10555379     -11.16427530      10.98480225        5       0.05913048       0.08732438       0.01340943       0.00009115       0.00011677       0.00004992       0.00000174       0.00000560       0.00005160      -0.04670206
Li      13.13346941     -15.30176549      14.04725191        0      -0.02875141      -0.03658639      -0.03847534       0.00005002       0.00006674       0.00003007      -0.00000240      -0.00002553       0.00001369      -0.02448380
Li      16.20565430     -13.88385397      12.35944200        0      -0.02961315      -0.00567172       0.00152593       0.00006194       0.00007098       0.00005681       0.00000483      -0.00000310       0.00001665      -0.03128858
Li      18.45002886     -15.78667017      14.85408529        0       0.00236993      -0.05703940      -0.01619043       0.00006111       0.00004897       0.00003092      -0.00001643       0.00000587       0.00002426      -0.02317865
Li      16.06987741     -17.53433343      12.67978103        1       0.00359047      -0.01072155      -0.01140809       0.00005165       0.00004552       0.00004857      -0.00000180      -0.00000372       0.00000108      -0.02144269
P       18.17275252     -19.38322328      15.33749840        2      -0.05735799      -0.02718672      -0.15758866       0.00015432       0.00015692       0.00007857      -0.00000517      -0.00006489       0.00000094      -0.07941918
S       14.61412260     -15.49306573      12.18931986        3      -0.02824185       0.02522349      -0.07848357       0.00008467       0.00005385       0.00012309       0.00000596       0.00002970       0.00001747      -0.04750176
S       17.14033496     -17.63482847      14.99722850        3       0.10467653      -0.06321488      -0.01060241       0.00005639       0.00012653       0.00002996      -0.00002071       0.00001947      -0.00001913      -0.03939183
S       11.80632876     -17.13513215      14.21737405        3       0.02481547       0.04345890      -0.05450103       0.00004892       0.00006601       0.00003117       0.00001617      -0.00000426       0.00001320      -0.02432145
S       14.59342489     -19.51742058      12.49549100        4       0.04044618      -0.09247486      -0.10692460       0.00005130       0.00009433       0.00010383       0.00005763      -0.00002443      -0.00001621      -0.04491376
S       16.81442967     -20.87472462      15.42189216        5       0.07824989       0.10129873      -0.05035876       0.00009937       0.00009239       0.00002318       0.00001494       0.00000049       0.00005197      -0.03989727
