32
Lattice="0.0 6.1365 0.0 7.70829 0.0 0.0 0.0 0.0 -22.86059527910402" Properties=species:S:1:pos:R:3:spacegroup_kinds:I:1:forces:R:3:stresses:R:6:energies:R:1 spacegroup="P m n 21" unit_cell=conventional occupancy="_JSON {\"0\": {\"Li\": 1.0}, \"1\": {\"Li\": 1.0}, \"2\": {\"P\": 1.0}, \"3\": {\"S\": 0.97}, \"4\": {\"S\": 0.98}, \"5\": {\"S\": 0.99}}" energy=-1.4280753112683684 stress="0.0028946280066279744 -3.2223549160725514e-10 6.379036093946613e-10 -3.2223549160725514e-10 0.0037307173453862805 -3.991620301036392e-16 6.379036093946613e-10 -3.991620301036392e-16 0.0030237081031024714" free_energy=-1.4280753112683684 pbc="T T T"
Li       5.78295110       3.17842647      -6.00000000        0       0.01904418       0.04197490      -0.03737200       0.00005713       0.00009579       0.00002029       0.00001610       0.00000232      -0.00000239      -0.02317862
Li       1.92533890       3.17842647      -6.00000000        0      -0.01904430       0.04197481      -0.03737207       0.00005713       0.00009579       0.00002029       0.00001610      -0.00000232       0.00000239      -0.02317865
Li       5.77948390       0.11017647     -10.32538528        0      -0.01344461       0.02347642      -0.01339909       0.00005777       0.00010274       0.00007258       0.00000296      -0.00000345       0.00000029      -0.03128858
Li       1.92880610       0.11017647     -10.32538528        0       0.01344454       0.02347638      -0.01339902       0.00005777       0.00010274       0.00007258       0.00000296       0.00000345      -0.00000029      -0.03128860
Li       3.85414500       6.05067352      -7.21529983        1      -0.00000000       0.00585610      -0.01495640       0.00005724       0.00006038       0.00006142       0.00000608      -0.00000000       0.00000000      -0.02144269
Li       0.00000077       2.98242352      -9.11008545        1       0.00000010       0.00585610       0.01495640       0.00005724       0.00006038       0.00006142      -0.00000608      -0.00000000      -0.00000000      -0.02144269
P        3.85414500       3.03279558      -9.32682016        2      -0.00000000       0.00960885       0.03225660       0.00018969       0.00020743       0.00022367      -0.00002025       0.00000000       0.00000000      -0.10259950
P        0.00000077       6.10104558      -6.99856512        2       0.00000047       0.00960885      -0.03225660       0.00018969       0.00020743       0.00022367       0.00002025       0.00000000      -0.00000000      -0.10259950
S        5.53727368       2.36683298     -10.30770023        3      -0.07962684      -0.00097603       0.03538518       0.00012501       0.00010316       0.00009322       0.00000791      -0.00004532      -0.00003580      -0.04750176
S        2.17101632       2.36683298     -10.30770023        3       0.07962674      -0.00097600       0.03538525       0.00012501       0.00010316       0.00009322       0.00000791       0.00004532       0.00003580      -0.04750178
S        6.02516132       5.43508298      -6.01768505        3       0.08522622      -0.01947458      -0.08615613       0.00012438       0.00009622       0.00004093      -0.00002697      -0.00003955       0.00003790      -0.03939177
S        1.68312868       5.43508298      -6.01768505        3      -0.08522669      -0.01947435      -0.08615647       0.00012438       0.00009622       0.00004093      -0.00002697       0.00003955      -0.00003790      -0.03939187
S        3.85414500       2.38158807      -7.45690901        4      -0.00000000       0.04438044      -0.14018110       0.00004655       0.00007413       0.00018578      -0.00004536      -0.00000000      -0.00000000      -0.04491376
S        0.00000077       5.44983807      -8.86847627        4       0.00000007       0.04438044       0.14018110       0.00004655       0.00007413       0.00018578       0.00004536      -0.00000000       0.00000000      -0.04491376
S        3.85414500       5.04885553      -9.43746266        5      -0.00000000      -0.10484615       0.01758002       0.00006589       0.00019283       0.00005804      -0.00000797       0.00000000      -0.00000000      -0.04670206
S        0.00000077       1.98060553      -6.88792262        5       0.00000012      -0.10484615      -0.01758002       0.00006589       0.00019283       0.00005804       0.00000797       0.00000000       0.00000000      -0.04670206
Li       5.78295110       3.17842647     -12.53521000        0       0.01344452       0.02347645       0.01339909       0.00005777       0.00010274       0.00007258      -0.00000296      -0.00000345      -0.00000029      -0.03128858
Li       1.92533890       3.17842647     -12.53521000        0      -0.01344463       0.02347635       0.01339902       0.00005777       0.00010274       0.00007258      -0.00000296       0.00000345       0.00000029      -0.03128861
Li       5.77948390       0.11017647     -16.86059528        0      -0.01904428       0.04197487       0.03737200       0.00005713       0.00009579       0.00002029      -0.00001610       0.00000232       0.00000239      -0.02317863
Li       1.92880610       0.11017647     -16.86059528        0       0.01904420       0.04197483       0.03737207       0.00005713       0.00009579       0.00002029      -0.00001610      -0.00000232      -0.00000239      -0.02317865
Li       3.85414500       6.05067352     -13.75050983        1      -0.00000000       0.00585610      -0.01495640       0.00005724       0.00006038       0.00006142       0.00000608      -0.00000000       0.00000000      -0.02144269
Li       0.00000077       2.98242352     -15.64529545        1       0.00000010       0.00585610       0.01495640       0.00005724       0.00006038       0.00006142      -0.00000608      -0.00000000      -0.00000000      -0.02144269
P        3.85414500       3.03279558     -15.86203016        2      -0.00000000       0.00960885       0.03225660       0.00018969       0.00020743       0.00022367      -0.00002025       0.00000000       0.00000000      -0.10259950
P        0.00000077       6.10104558     -13.53377512        2       0.00000047       0.00960885      -0.03225660       0.00018969       0.00020743       0.00022367       0.00002025       0.00000000      -0.00000000      -0.10259950
S        5.53727368       2.36683298     -16.84291023        3      -0.08522650      -0.01947448       0.08615627       0.00012438       0.00009622       0.00004093       0.00002697      -0.00003955      -0.00003790      -0.03939181
S        2.17101632       2.36683298     -16.84291023        3       0.08522640      -0.01947445       0.08615633       0.00012438       0.00009622       0.00004093       0.00002697       0.00003955       0.00003790      -0.03939183
S        6.02516132       5.43508298     -12.55289505        3       0.07962655      -0.00097613      -0.03538505       0.00012501       0.00010316       0.00009322      -0.00000791      -0.00004532       0.00003580      -0.04750173
S        1.68312868       5.43508298     -12.55289505        3      -0.07962702      -0.00097590      -0.03538539       0.00012501       0.00010316       0.00009322      -0.00000791       0.00004532      -0.00003580      -0.04750182
S        3.85414500       2.38158807     -13.99211901        4      -0.00000000       0.04438044      -0.14018110       0.00004655       0.00007413       0.00018578      -0.00004536      -0.00000000      -0.00000000      -0.04491376
S        0.00000077       5.44983807     -15.40368627        4       0.00000007       0.04438044       0.14018110       0.00004655       0.00007413       0.00018578       0.00004536      -0.00000000       0.00000000      -0.04491376
S        3.85414500       5.04885553     -15.97267266        5      -0.00000000      -0.10484615       0.01758002       0.00006589       0.00019283       0.00005804      -0.00000797       0.00000000      -0.00000000      -0.04670206
S        0.00000077       1.98060553     -13.42313262        5       0.00000012      -0.10484615      -0.01758002       0.00006589       0.00019283       0.00005804       0.00000797       0.00000000       0.00000000      -0.04670206
