12
Lattice="3.51004 0.0 0.0 0.0 3.51004 0.0 0.0 0.0 31.305219648996" Properties=species:S:1:pos:R:3:spacegroup_kinds:I:1:forces:R:3:stresses:R:6:energies:R:1 spacegroup="I m -3 m" unit_cell=conventional occupancy="_JSON {\"0\": {\"Li\": 1.0}}" energy=0.0 stress="0.0 0.0 0.0 0.0 0.0 0.0 0.0 0.0 0.0" free_energy=0.0 pbc="T T T"
Li       0.00000035       0.00000035       6.00000000        0       0.00000000       0.00000000       0.00000000       0.00000000       0.00000000       0.00000000       0.00000000       0.00000000       0.00000000       0.00000000
Li       1.75502000       1.75502000       7.75501965        0       0.00000000       0.00000000       0.00000000       0.00000000       0.00000000       0.00000000       0.00000000       0.00000000       0.00000000       0.00000000
Li       0.00000035       0.00000035       9.51004000        0       0.00000000       0.00000000       0.00000000       0.00000000       0.00000000       0.00000000       0.00000000       0.00000000       0.00000000       0.00000000
Li       1.75502000       1.75502000      11.26505965        0       0.00000000       0.00000000       0.00000000       0.00000000       0.00000000       0.00000000       0.00000000       0.00000000       0.00000000       0.00000000
Li       0.00000035       0.00000035      13.02008000        0       0.00000000       0.00000000       0.00000000       0.00000000       0.00000000       0.00000000       0.00000000       0.00000000       0.00000000       0.00000000
Li       1.75502000       1.75502000      14.77509965        0       0.00000000       0.00000000       0.00000000       0.00000000       0.00000000       0.00000000       0.00000000       0.00000000       0.00000000       0.00000000
Li       0.00000035       0.00000035      16.53012000        0       0.00000000       0.00000000       0.00000000       0.00000000       0.00000000       0.00000000       0.00000000       0.00000000       0.00000000       0.00000000
Li       1.75502000       1.75502000      18.28513965        0       0.00000000       0.00000000       0.00000000       0.00000000       0.00000000       0.00000000       0.00000000       0.00000000       0.00000000       0.00000000
Li       0.00000035       0.00000035      20.04016000        0       0.00000000       0.00000000       0.00000000       0.00000000       0.00000000       0.00000000       0.00000000       0.00000000       0.00000000       0.00000000
Li       1.75502000       1.75502000      21.79517965        0       0.00000000       0.00000000       0.00000000       0.00000000       0.00000000       0.00000000       0.00000000       0.00000000       0.00000000       0.00000000
Li       0.00000035       0.00000035      23.55020000        0       0.00000000       0.00000000       0.00000000       0.00000000       0.00000000       0.00000000       0.00000000       0.00000000       0.00000000       0.00000000
Li       1.75502000       1.75502000      25.30521965        0       0.00000000       0.00000000       0.00000000       0.00000000       0.00000000       0.00000000       0.00000000       0.00000000       0.00000000       0.00000000
