12
Lattice="4.794803808299531 1.2847638082995307 0.0 1.2847638082995307 4.79480380829953 0.0 -23.145873355808185 -23.145873355808185 23.145873355808185" Properties=species:S:1:pos:R:3:spacegroup_kinds:I:1:forces:R:3:stresses:R:6:energies:R:1 spacegroup="I m -3 m" unit_cell=conventional occupancy="_JSON {\"0\": {\"Li\": 1.0}}" energy=0.0 stress="0.0 0.0 0.0 0.0 0.0 0.0 0.0 0.0 0.0" free_energy=0.0 pbc="T T T"
Li      -3.97347685      -3.97347685       7.01326066        0       0.00000000       0.00000000       0.00000000       0.00000000       0.00000000       0.00000000       0.00000000       0.00000000       0.00000000       0.00000000
Li      -5.99999939      -5.99999939       6.00000000        0       0.00000000       0.00000000       0.00000000       0.00000000       0.00000000       0.00000000       0.00000000       0.00000000       0.00000000       0.00000000
Li      -5.99999939      -5.99999939       9.03978320        0       0.00000000       0.00000000       0.00000000       0.00000000       0.00000000       0.00000000       0.00000000       0.00000000       0.00000000       0.00000000
Li      -8.02652193      -8.02652193       8.02652254        0       0.00000000       0.00000000       0.00000000       0.00000000       0.00000000       0.00000000       0.00000000       0.00000000       0.00000000       0.00000000
Li      -8.02652193      -8.02652193      11.06630574        0       0.00000000       0.00000000       0.00000000       0.00000000       0.00000000       0.00000000       0.00000000       0.00000000       0.00000000       0.00000000
Li     -10.05304447     -10.05304447      10.05304508        0       0.00000000       0.00000000       0.00000000       0.00000000       0.00000000       0.00000000       0.00000000       0.00000000       0.00000000       0.00000000
Li     -10.05304447     -10.05304447      13.09282828        0       0.00000000       0.00000000       0.00000000       0.00000000       0.00000000       0.00000000       0.00000000       0.00000000       0.00000000       0.00000000
Li     -12.07956701     -12.07956701      12.07956762        0       0.00000000       0.00000000       0.00000000       0.00000000       0.00000000       0.00000000       0.00000000       0.00000000       0.00000000       0.00000000
Li     -12.07956701     -12.07956701      15.11935082        0       0.00000000       0.00000000       0.00000000       0.00000000       0.00000000       0.00000000       0.00000000       0.00000000       0.00000000       0.00000000
Li     -14.10608955     -14.10608955      14.10609016        0       0.00000000       0.00000000       0.00000000       0.00000000       0.00000000       0.00000000       0.00000000       0.00000000       0.00000000       0.00000000
Li     -14.10608955     -14.10608955      17.14587336        0       0.00000000       0.00000000       0.00000000       0.00000000       0.00000000       0.00000000       0.00000000       0.00000000       0.00000000       0.00000000
Li     -16.13261209     -16.13261209      16.13261269        0       0.00000000       0.00000000       0.00000000       0.00000000       0.00000000       0.00000000       0.00000000       0.00000000       0.00000000       0.00000000
