12
Lattice="-2.4819730862360294 -2.4819730862360294 0.0 3.510040000000001 -3.510040000000001 0.0 17.26038172524257 -17.26038172524257 24.409865927574764" Properties=species:S:1:pos:R:3:spacegroup_kinds:I:1:forces:R:3:stresses:R:6:energies:R:1 spacegroup="I m -3 m" unit_cell=conventional occupancy="_JSON {\"0\": {\"Li\": 1.0}}" energy=0.0 stress="0.0 0.0 0.0 0.0 0.0 0.0 0.0 0.0 0.0" free_energy=0.0 pbc="T T T"
Li       4.75667414      -7.23864723       6.00000000        0       0.00000000       0.00000000       0.00000000       0.00000000       0.00000000       0.00000000       0.00000000       0.00000000       0.00000000       0.00000000
Li       4.24264114      -4.24264164       6.00000050        0       0.00000000       0.00000000       0.00000000       0.00000000       0.00000000       0.00000000       0.00000000       0.00000000       0.00000000       0.00000000
Li       6.51169414      -8.99366723       8.48197309        0       0.00000000       0.00000000       0.00000000       0.00000000       0.00000000       0.00000000       0.00000000       0.00000000       0.00000000       0.00000000
Li       5.99766114      -5.99766164       8.48197358        0       0.00000000       0.00000000       0.00000000       0.00000000       0.00000000       0.00000000       0.00000000       0.00000000       0.00000000       0.00000000
Li       8.26671414     -10.74868723      10.96394617        0       0.00000000       0.00000000       0.00000000       0.00000000       0.00000000       0.00000000       0.00000000       0.00000000       0.00000000       0.00000000
Li       7.75268114      -7.75268164      10.96394667        0       0.00000000       0.00000000       0.00000000       0.00000000       0.00000000       0.00000000       0.00000000       0.00000000       0.00000000       0.00000000
Li      10.02173414     -12.50370723      13.44591926        0       0.00000000       0.00000000       0.00000000       0.00000000       0.00000000       0.00000000       0.00000000       0.00000000       0.00000000       0.00000000
Li      13.01774044     -13.01774094      13.44591976        0       0.00000000       0.00000000       0.00000000       0.00000000       0.00000000       0.00000000       0.00000000       0.00000000       0.00000000       0.00000000
Li      11.77675414     -14.25872723      15.92789234        0       0.00000000       0.00000000       0.00000000       0.00000000       0.00000000       0.00000000       0.00000000       0.00000000       0.00000000       0.00000000
Li      11.26272114     -11.26272164      15.92789284        0       0.00000000       0.00000000       0.00000000       0.00000000       0.00000000       0.00000000       0.00000000       0.00000000       0.00000000       0.00000000
Li      13.53177414     -16.01374723      18.40986543        0       0.00000000       0.00000000       0.00000000       0.00000000       0.00000000       0.00000000       0.00000000       0.00000000       0.00000000       0.00000000
Li      13.01774114     -13.01774164      18.40986593        0       0.00000000       0.00000000       0.00000000       0.00000000       0.00000000       0.00000000       0.00000000       0.00000000       0.00000000       0.00000000
