4
Lattice="0.0 3.51004 0.0 -3.51004 0.0 0.0 0.0 0.0 15.510039297992" Properties=species:S:1:pos:R:3:spacegroup_kinds:I:1:forces:R:3:stresses:R:6:energies:R:1 spacegroup="I m -3 m" unit_cell=conventional occupancy="_JSON {\"0\": {\"Li\": 1.0}}" energy=-0.2996833375164319 stress="0.0010653447985941235 -5.431281013813527e-16 0.0 -5.431281013813527e-16 0.0010653447985941235 0.0 0.0 0.0 0.00800794491392909" free_energy=-0.2996833375164319 pbc="T T T"
Li      -0.00000035       0.00000035       6.00000000        0       0.00000000       0.00000000       0.43595948       0.00000000       0.00000000       0.00200199       0.00000000       0.00000000       0.00000000      -0.06336239
Li      -1.75502000       1.75502000       7.75501965        0       0.00000007      -0.00000007       0.43595948       0.00053267       0.00053267       0.00200199       0.00000000       0.00000000      -0.00000000      -0.08647928
Li      -0.00000035       0.00000035       7.75501965        0      -0.00000007       0.00000007      -0.43595948       0.00053267       0.00053267       0.00200199       0.00000000       0.00000000      -0.00000000      -0.08647928
Li      -1.75502000       1.75502000       9.51003930        0       0.00000000       0.00000000      -0.43595948       0.00000000       0.00000000       0.00200199       0.00000000       0.00000000       0.00000000      -0.06336239
6
Lattice="0.0 3.51004 0.0 -3.51004 0.0 0.0 0.0 0.0 17.265058946988002" Properties=species:S:1:pos:R:3:spacegroup_kinds:I:1:forces:R:3:stresses:R:6:energies:R:1 spacegroup="I m -3 m" unit_cell=conventional occupancy="_JSON {\"0\": {\"Li\": 1.0}}" energy=-0.5993666750328637 stress="0.0019141017407286478 -9.758365983150228e-16 0.0 -9.758365983150228e-16 0.0019141017407286478 0.0 0.0 0.0 0.014387850130435078" free_energy=-0.5993666750328637 pbc="T T T"
Li      -0.00000035       0.00000035       6.00000000        0       0.00000000       0.00000000       0.43595948       0.00000000       0.00000000       0.00179848       0.00000000       0.00000000       0.00000000      -0.06336239
Li      -1.75502000       1.75502000       7.75501965        0       0.00000007      -0.00000007       0.43595948       0.00047853       0.00047853       0.00179848       0.00000000       0.00000000      -0.00000000      -0.08647928
Li      -0.00000035       0.00000035       7.75501965        0      -0.00000007       0.00000007       0.00000000       0.00047853       0.00047853       0.00359696       0.00000000       0.00000000      -0.00000000      -0.14984167
Li      -1.75502000       1.75502000       9.51003930        0       0.00000007      -0.00000007       0.00000000       0.00047853       0.00047853       0.00359696       0.00000000       0.00000000      -0.00000000      -0.14984167
Li      -0.00000035       0.00000035       9.51003930        0      -0.00000007       0.00000007      -0.43595948       0.00047853       0.00047853       0.00179848       0.00000000       0.00000000      -0.00000000      -0.08647928
Li      -1.75502000       1.75502000      11.26505895        0       0.00000000       0.00000000      -0.43595948       0.00000000       0.00000000       0.00179848       0.00000000       0.00000000       0.00000000      -0.06336239
8
Lattice="0.0 3.51004 0.0 -3.51004 0.0 0.0 0.0 0.0 19.020078595984003" Properties=species:S:1:pos:R:3:spacegroup_kinds:I:1:forces:R:3:stresses:R:6:energies:R:1 spacegroup="I m -3 m" unit_cell=conventional occupancy="_JSON {\"0\": {\"Li\": 1.0}}" energy=-0.8990500125492956 stress="0.002606225774839085 -1.3286913858569292e-15 0.0 -1.3286913858569292e-15 0.002606225774839085 0.0 0.0 0.0 0.019590382818515856" free_energy=-0.8990500125492956 pbc="T T T"
Li      -0.00000035       0.00000035       6.00000000        0       0.00000000       0.00000000       0.43595948       0.00000000       0.00000000       0.00163253       0.00000000       0.00000000       0.00000000      -0.06336239
Li      -1.75502000       1.75502000       7.75501965        0       0.00000007      -0.00000007       0.43595948       0.00043437       0.00043437       0.00163253       0.00000000       0.00000000      -0.00000000      -0.08647928
Li      -0.00000035       0.00000035       7.75501965        0      -0.00000007       0.00000007       0.00000000       0.00043437       0.00043437       0.00326506       0.00000000       0.00000000      -0.00000000      -0.14984167
Li      -1.75502000       1.75502000       9.51003930        0       0.00000007      -0.00000007       0.00000000       0.00043437       0.00043437       0.00326506       0.00000000       0.00000000      -0.00000000      -0.14984167
Li      -0.00000035       0.00000035       9.51003930        0      -0.00000007       0.00000007       0.00000000       0.00043437       0.00043437       0.00326506       0.00000000       0.00000000      -0.00000000      -0.14984167
Li      -1.75502000       1.75502000      11.26505895        0       0.00000007      -0.00000007       0.00000000       0.00043437       0.00043437       0.00326506       0.00000000       0.00000000      -0.00000000      -0.14984167
Li      -0.00000035       0.00000035      11.26505895        0      -0.00000007       0.00000007      -0.43595948       0.00043437       0.00043437       0.00163253       0.00000000       0.00000000      -0.00000000      -0.08647928
Li      -1.75502000       1.75502000      13.02007860        0       0.00000000       0.00000000      -0.43595948       0.00000000       0.00000000       0.00163253       0.00000000       0.00000000       0.00000000      -0.06336239
10
Lattice="0.0 3.51004 0.0 -3.51004 0.0 0.0 0.0 0.0 20.775098244979997" Properties=species:S:1:pos:R:3:spacegroup_kinds:I:1:forces:R:3:stresses:R:6:energies:R:1 spacegroup="I m -3 m" unit_cell=conventional occupancy="_JSON {\"0\": {\"Li\": 1.0}}" energy=-1.1987333500657293 stress="0.003181412573314572 -1.6219298887415045e-15 0.0 -1.6219298887415045e-15 0.003181412573314572 0.0 0.0 0.0 0.023913925960125346" free_energy=-1.1987333500657293 pbc="T T T"
Li      -0.00000035       0.00000035       6.00000000        0       0.00000000       0.00000000       0.43595948       0.00000000       0.00000000       0.00149462       0.00000000       0.00000000       0.00000000      -0.06336239
Li      -1.75502000       1.75502000       7.75501965        0       0.00000007      -0.00000007       0.43595948       0.00039768       0.00039768       0.00149462       0.00000000       0.00000000      -0.00000000      -0.08647928
Li      -0.00000035       0.00000035       7.75501965        0      -0.00000007       0.00000007       0.00000000       0.00039768       0.00039768       0.00298924       0.00000000       0.00000000      -0.00000000      -0.14984167
Li      -1.75502000       1.75502000       9.51003930        0       0.00000007      -0.00000007      -0.00000000       0.00039768       0.00039768       0.00298924       0.00000000       0.00000000      -0.00000000      -0.14984167
Li      -0.00000035       0.00000035       9.51003930        0      -0.00000007       0.00000007      -0.00000000       0.00039768       0.00039768       0.00298924       0.00000000       0.00000000      -0.00000000      -0.14984167
Li      -1.75502000       1.75502000      11.26505895        0       0.00000007      -0.00000007       0.00000000       0.00039768       0.00039768       0.00298924       0.00000000       0.00000000      -0.00000000      -0.14984167
Li      -0.00000035       0.00000035      11.26505895        0      -0.00000007       0.00000007       0.00000000       0.00039768       0.00039768       0.00298924       0.00000000       0.00000000      -0.00000000      -0.14984167
Li      -1.75502000       1.75502000      13.02007860        0       0.00000007      -0.00000007       0.00000000       0.00039768       0.00039768       0.00298924       0.00000000       0.00000000      -0.00000000      -0.14984167
Li      -0.00000035       0.00000035      13.02007860        0      -0.00000007       0.00000007      -0.43595948       0.00039768       0.00039768       0.00149462       0.00000000       0.00000000      -0.00000000      -0.08647928
Li      -1.75502000       1.75502000      14.77509824        0       0.00000000       0.00000000      -0.43595948       0.00000000       0.00000000       0.00149462       0.00000000       0.00000000       0.00000000      -0.06336239
