384
Lattice="0.0 18.4095 0.0 7.70829 18.4095 0.0 0.0 0.0 -46.603082232832165" Properties=species:S:1:pos:R:3:spacegroup_kinds:I:1:forces:R:3:stresses:R:6:energies:R:1 spacegroup="P m n 21" unit_cell=conventional occupancy="_JSON {\"0\": {\"Li\": 1.0}, \"1\": {\"Li\": 1.0}, \"2\": {\"P\": 1.0}, \"3\": {\"S\": 0.97}, \"4\": {\"S\": 0.98}, \"5\": {\"S\": 0.99}}" energy=-94.35518395486847 stress="0.014434228868693846 -3.9563659131264325e-10 7.468152540367935e-10 -3.9563659131264325e-10 0.04701963610526119 -7.645530924228736e-16 7.468152540367935e-10 -7.645530924228736e-16 0.008703814062048894" free_energy=-94.35518395486847 pbc="T T T"
Li       0.00000077       2.98241809      -9.11015754        1       0.00000030       0.00556890      -0.11783632       0.00002537       0.00001293       0.00002613       0.00000086      -0.00000000       0.00000000      -0.05224167
P        0.00000077       6.10105136      -6.99858453        2       0.00000047       0.00962286      -0.03224604       0.00003102       0.00003392       0.00003658       0.00000331       0.00000000      -0.00000000      -0.10261538
S        1.68307741       5.43507127      -6.01773688        3      -0.08524645      -0.01947136      -0.08616516       0.00002034       0.00001573       0.00000669      -0.00000441       0.00000647      -0.00000620      -0.03939650
S        0.00000077       5.44986948      -8.86847886        4       0.00000026       0.03375423      -0.00640137       0.00002256       0.00001297       0.00004927       0.00000795      -0.00000000       0.00000000      -0.07523428
S        0.00000077       1.98054246      -6.88793320        5       0.00000012      -0.10489027      -0.01757719       0.00001077       0.00003153       0.00000949       0.00000130       0.00000000       0.00000000      -0.04670462
Li       0.00000077       2.98241809     -13.43554282        1       0.00000030       0.00557253      -0.11784253       0.00002537       0.00001293       0.00002613       0.00000086      -0.00000000       0.00000000      -0.05224041
P        0.00000077       6.10105416     -11.32389341        2       0.00000067       0.00714635       0.06148808       0.00004801       0.00003752       0.00004736       0.00000220       0.00000000      -0.00000000      -0.12915170
S        1.62514606       5.24371794     -10.34724602        3       0.61912760       2.09725933       0.05643378       0.00005261       0.00024884       0.00001416      -0.00000008       0.00000298       0.00005038      -0.47283987
S        0.00000077       5.44986948     -13.19386414        4       0.00000026       0.03373611      -0.00644669       0.00002256       0.00001297       0.00004926       0.00000795      -0.00000000       0.00000000      -0.07522717
S        0.00000077       1.98055642     -11.21325289        5       0.00000030      -0.09529595       0.08461898       0.00002827       0.00003738       0.00002168       0.00000445       0.00000000       0.00000000      -0.07235209
Li       0.00000077       2.98241809     -17.76092809        1       0.00000030       0.00557253      -0.11784253       0.00002537       0.00001293       0.00002613       0.00000086      -0.00000000       0.00000000      -0.05224041
P        0.00000077       6.10105416     -15.64927869        2       0.00000067       0.00714635       0.06148808       0.00004801       0.00003752       0.00004736       0.00000220       0.00000000      -0.00000000      -0.12915170
S        1.62514606       5.24371794     -14.67263130        3       0.61912760       2.09725933       0.05643378       0.00005261       0.00024884       0.00001416      -0.00000008       0.00000298       0.00005038      -0.47283987
S        0.00000077       5.44986948     -17.51924942        4       0.00000026       0.03373611      -0.00644669       0.00002256       0.00001297       0.00004926       0.00000795      -0.00000000       0.00000000      -0.07522717
S        0.00000077       1.98055642     -15.53863817        5       0.00000030      -0.09529595       0.08461898       0.00002827       0.00003738       0.00002168       0.00000445       0.00000000       0.00000000      -0.07235209
Li       0.00000077       2.98241809     -22.08631337        1       0.00000030       0.00557253      -0.11784253       0.00002537       0.00001293       0.00002613       0.00000086      -0.00000000       0.00000000      -0.05224041
P        0.00000077       6.10105416     -19.97466397        2       0.00000067       0.00714635       0.06148808       0.00004801       0.00003752       0.00004736       0.00000220       0.00000000      -0.00000000      -0.12915170
S        1.62514606       5.24371794     -18.99801658        3       0.61912760       2.09725933       0.05643378       0.00005261       0.00024884       0.00001416      -0.00000008       0.00000298       0.00005038      -0.47283987
S        0.00000077       5.44986948     -21.84463470        4       0.00000026       0.03373611      -0.00644669       0.00002256       0.00001297       0.00004926       0.00000795      -0.00000000       0.00000000      -0.07522717
S        0.00000077       1.98055642     -19.86402345        5       0.00000030      -0.09529595       0.08461898       0.00002827       0.00003738       0.00002168       0.00000445       0.00000000       0.00000000      -0.07235209
Li       0.00000077       2.98241809     -26.41169865        1       0.00000030       0.00557253      -0.11784253       0.00002537       0.00001293       0.00002613       0.00000086      -0.00000000       0.00000000      -0.05224041
P        0.00000077       6.10105416     -24.30004925        2       0.00000067       0.00714635       0.06148808       0.00004801       0.00003752       0.00004736       0.00000220       0.00000000      -0.00000000      -0.12915170
S        1.62514606       5.24371794     -23.32340186        3       0.61912760       2.09725933       0.05643378       0.00005261       0.00024884       0.00001416      -0.00000008       0.00000298       0.00005038      -0.47283987
S        0.00000077       5.44986948     -26.17001998        4       0.00000026       0.03373611      -0.00644669       0.00002256       0.00001297       0.00004926       0.00000795      -0.00000000       0.00000000      -0.07522717
S        0.00000077       1.98055642     -24.18940873        5       0.00000030      -0.09529595       0.08461898       0.00002827       0.00003738       0.00002168       0.00000445       0.00000000       0.00000000      -0.07235209
Li       0.00000077       2.98241809     -30.73708393        1       0.00000030       0.00557253      -0.11784253       0.00002537       0.00001293       0.00002613       0.00000086      -0.00000000       0.00000000      -0.05224041
P        0.00000077       6.10105416     -28.62543452        2       0.00000067       0.00714635       0.06148808       0.00004801       0.00003752       0.00004736       0.00000220       0.00000000      -0.00000000      -0.12915170
S        1.62514606       5.24371794     -27.64878714        3       0.61912760       2.09725933       0.05643378       0.00005261       0.00024884       0.00001416      -0.00000008       0.00000298       0.00005038      -0.47283987
S        0.00000077       5.44986948     -30.49540526        4       0.00000026       0.03373611      -0.00644669       0.00002256       0.00001297       0.00004926       0.00000795      -0.00000000       0.00000000      -0.07522717
S        0.00000077       1.98055642     -28.51479401        5       0.00000030      -0.09529595       0.08461898       0.00002827       0.00003738       0.00002168       0.00000445       0.00000000       0.00000000      -0.07235209
Li       0.00000077       2.98241809     -35.06246921        1       0.00000030       0.00557253      -0.11784253       0.00002537       0.00001293       0.00002613       0.00000086      -0.00000000       0.00000000      -0.05224041
P        0.00000077       6.10105416     -32.95081980        2       0.00000067       0.00714635       0.06148808       0.00004801       0.00003752       0.00004736       0.00000220       0.00000000      -0.00000000      -0.12915170
S        1.62514606       5.24371794     -31.97417241        3       0.61912760       2.09725933       0.05643378       0.00005261       0.00024884       0.00001416      -0.00000008       0.00000298       0.00005038      -0.47283987
S        0.00000077       5.44986948     -34.82079054        4       0.00000026       0.03373611      -0.00644669       0.00002256       0.00001297       0.00004926       0.00000795      -0.00000000       0.00000000      -0.07522717
S        0.00000077       1.98055642     -32.84017929        5       0.00000030      -0.09529595       0.08461898       0.00002827       0.00003738       0.00002168       0.00000445       0.00000000       0.00000000      -0.07235209
Li       0.00000077       2.98242705     -39.38777341        1       0.00000010       0.00585640       0.01495315       0.00000936       0.00000987       0.00001004      -0.00000099      -0.00000000      -0.00000000      -0.02143967
P        0.00000077       6.10105416     -37.27620508        2       0.00000067       0.00712561       0.06143840       0.00004801       0.00003752       0.00004736       0.00000221       0.00000000      -0.00000000      -0.12915953
S        1.62514606       5.24371794     -36.29955769        3       0.61912760       2.09725933       0.05643378       0.00005261       0.00024884       0.00001416      -0.00000008       0.00000298       0.00005038      -0.47283987
S        0.00000077       5.44986476     -39.14608889        4       0.00000007       0.04438730       0.14020422       0.00000761       0.00001212       0.00003038       0.00000742      -0.00000000       0.00000000      -0.04491472
S        0.00000077       1.98055642     -37.16556457        5       0.00000030      -0.09529141       0.08461083       0.00002827       0.00003738       0.00002169       0.00000445       0.00000000       0.00000000      -0.07235373
Li       1.92532745       9.31495172      -6.00002248        0      -0.01904611       0.04198414      -0.03736937       0.00000934       0.00001566       0.00000332       0.00000263      -0.00000038       0.00000039      -0.02317843
Li       1.98671652       6.43804879     -10.32124764        0      -0.67076144      -2.07283873      -0.10329368       0.00004869       0.00024979       0.00000963       0.00000362       0.00000177       0.00006389      -0.46160469
Li       3.85414500      12.18717705      -7.21530882        1       0.00000000       0.00585640      -0.01495315       0.00000936       0.00000987       0.00001004       0.00000099       0.00000000      -0.00000000      -0.02143967
Li       0.00000077       9.11891809      -9.11015754        1       0.00000030       0.00556890      -0.11783632       0.00002537       0.00001293       0.00002613       0.00000086      -0.00000000       0.00000000      -0.05224167
P        0.00000077      12.23755136      -6.99858453        2       0.00000047       0.00962286      -0.03224604       0.00003102       0.00003392       0.00003658       0.00000331       0.00000000      -0.00000000      -0.10261538
S        2.22899894       8.31196794     -10.30352454        3      -0.61912803       2.09725919      -0.05643382       0.00005261       0.00024884       0.00001416       0.00000008       0.00000298      -0.00005038      -0.47283983
S        1.68307741      11.57157127      -6.01773688        3      -0.08524645      -0.01947136      -0.08616516       0.00002034       0.00001573       0.00000669      -0.00000441       0.00000647      -0.00000620      -0.03939650
S        0.00000077      11.58636948      -8.86847886        4       0.00000026       0.03375423      -0.00640137       0.00002256       0.00001297       0.00004927       0.00000795      -0.00000000       0.00000000      -0.07523428
S        3.85414500      11.18530642      -9.43751766        5       0.00000000      -0.09529141      -0.08461083       0.00002827       0.00003738       0.00002169      -0.00000445      -0.00000000       0.00000000      -0.07235373
S        0.00000077       8.11704246      -6.88793320        5       0.00000012      -0.10489027      -0.01757719       0.00001077       0.00003153       0.00000949       0.00000130       0.00000000       0.00000000      -0.04670462
Li       1.86742848       9.50629879     -10.32952292        0       0.67076109      -2.07283877       0.10329367       0.00004869       0.00024979       0.00000963      -0.00000362       0.00000177      -0.00006389      -0.46160469
Li       1.98671652       6.43804879     -14.64663292        0      -0.67076144      -2.07283873      -0.10329368       0.00004869       0.00024979       0.00000963       0.00000362       0.00000177       0.00006389      -0.46160469
Li       3.85414500      12.18716809     -11.54061302        1       0.00000000       0.00557253       0.11784253       0.00002537       0.00001293       0.00002613      -0.00000086       0.00000000      -0.00000000      -0.05224041
Li       0.00000077       9.11891809     -13.43554282        1       0.00000030       0.00557253      -0.11784253       0.00002537       0.00001293       0.00002613       0.00000086      -0.00000000       0.00000000      -0.05224041
P        0.00000077      12.23755416     -11.32389341        2       0.00000067       0.00714635       0.06148808       0.00004801       0.00003752       0.00004736       0.00000220       0.00000000      -0.00000000      -0.12915170
S        2.22899894       8.31196794     -14.62890982        3      -0.61912803       2.09725919      -0.05643382       0.00005261       0.00024884       0.00001416       0.00000008       0.00000298      -0.00005038      -0.47283983
S        1.62514606      11.38021794     -10.34724602        3       0.61912760       2.09725933       0.05643378       0.00005261       0.00024884       0.00001416      -0.00000008       0.00000298       0.00005038      -0.47283987
S        0.00000077      11.58636948     -13.19386414        4       0.00000026       0.03373611      -0.00644669       0.00002256       0.00001297       0.00004926       0.00000795      -0.00000000       0.00000000      -0.07522717
S        3.85414500      11.18530642     -13.76290294        5       0.00000000      -0.09529595      -0.08461898       0.00002827       0.00003738       0.00002168      -0.00000445      -0.00000000       0.00000000      -0.07235209
S        0.00000077       8.11705642     -11.21325289        5       0.00000030      -0.09529595       0.08461898       0.00002827       0.00003738       0.00002168       0.00000445       0.00000000       0.00000000      -0.07235209
Li       1.86742848       9.50629879     -14.65490820        0       0.67076109      -2.07283877       0.10329367       0.00004869       0.00024979       0.00000963      -0.00000362       0.00000177      -0.00006389      -0.46160469
Li       1.98671652       6.43804879     -18.97201819        0      -0.67076144      -2.07283873      -0.10329368       0.00004869       0.00024979       0.00000963       0.00000362       0.00000177       0.00006389      -0.46160469
Li       3.85414500      12.18716809     -15.86599830        1       0.00000000       0.00557253       0.11784253       0.00002537       0.00001293       0.00002613      -0.00000086       0.00000000      -0.00000000      -0.05224041
Li       0.00000077       9.11891809     -17.76092809        1       0.00000030       0.00557253      -0.11784253       0.00002537       0.00001293       0.00002613       0.00000086      -0.00000000       0.00000000      -0.05224041
P        0.00000077      12.23755416     -15.64927869        2       0.00000067       0.00714635       0.06148808       0.00004801       0.00003752       0.00004736       0.00000220       0.00000000      -0.00000000      -0.12915170
S        2.22899894       8.31196794     -18.95429510        3      -0.61912803       2.09725919      -0.05643382       0.00005261       0.00024884       0.00001416       0.00000008       0.00000298      -0.00005038      -0.47283983
S        1.62514606      11.38021794     -14.67263130        3       0.61912760       2.09725933       0.05643378       0.00005261       0.00024884       0.00001416      -0.00000008       0.00000298       0.00005038      -0.47283987
S        0.00000077      11.58636948     -17.51924942        4       0.00000026       0.03373611      -0.00644669       0.00002256       0.00001297       0.00004926       0.00000795      -0.00000000       0.00000000      -0.07522717
S        3.85414500      11.18530642     -18.08828822        5       0.00000000      -0.09529595      -0.08461898       0.00002827       0.00003738       0.00002168      -0.00000445      -0.00000000       0.00000000      -0.07235209
S        0.00000077       8.11705642     -15.53863817        5       0.00000030      -0.09529595       0.08461898       0.00002827       0.00003738       0.00002168       0.00000445       0.00000000       0.00000000      -0.07235209
Li       1.86742848       9.50629879     -18.98029348        0       0.67076109      -2.07283877       0.10329367       0.00004869       0.00024979       0.00000963      -0.00000362       0.00000177      -0.00006389      -0.46160469
Li       1.98671652       6.43804879     -23.29740347        0      -0.67076144      -2.07283873      -0.10329368       0.00004869       0.00024979       0.00000963       0.00000362       0.00000177       0.00006389      -0.46160469
Li       3.85414500      12.18716809     -20.19138358        1       0.00000000       0.00557253       0.11784253       0.00002537       0.00001293       0.00002613      -0.00000086       0.00000000      -0.00000000      -0.05224041
Li       0.00000077       9.11891809     -22.08631337        1       0.00000030       0.00557253      -0.11784253       0.00002537       0.00001293       0.00002613       0.00000086      -0.00000000       0.00000000      -0.05224041
P        0.00000077      12.23755416     -19.97466397        2       0.00000067       0.00714635       0.06148808       0.00004801       0.00003752       0.00004736       0.00000220       0.00000000      -0.00000000      -0.12915170
S        2.22899894       8.31196794     -23.27968038        3      -0.61912803       2.09725919      -0.05643382       0.00005261       0.00024884       0.00001416       0.00000008       0.00000298      -0.00005038      -0.47283983
S        1.62514606      11.38021794     -18.99801658        3       0.61912760       2.09725933       0.05643378       0.00005261       0.00024884       0.00001416      -0.00000008       0.00000298       0.00005038      -0.47283987
S        0.00000077      11.58636948     -21.84463470        4       0.00000026       0.03373611      -0.00644669       0.00002256       0.00001297       0.00004926       0.00000795      -0.00000000       0.00000000      -0.07522717
S        3.85414500      11.18530642     -22.41367350        5       0.00000000      -0.09529595      -0.08461898       0.00002827       0.00003738       0.00002168      -0.00000445      -0.00000000       0.00000000      -0.07235209
S        0.00000077       8.11705642     -19.86402345        5       0.00000030      -0.09529595       0.08461898       0.00002827       0.00003738       0.00002168       0.00000445       0.00000000       0.00000000      -0.07235209
Li       1.86742848       9.50629879     -23.30567876        0       0.67076109      -2.07283877       0.10329367       0.00004869       0.00024979       0.00000963      -0.00000362       0.00000177      -0.00006389      -0.46160469
Li       1.98671652       6.43804879     -27.62278875        0      -0.67076144      -2.07283873      -0.10329368       0.00004869       0.00024979       0.00000963       0.00000362       0.00000177       0.00006389      -0.46160469
Li       3.85414500      12.18716809     -24.51676886        1       0.00000000       0.00557253       0.11784253       0.00002537       0.00001293       0.00002613      -0.00000086       0.00000000      -0.00000000      -0.05224041
Li       0.00000077       9.11891809     -26.41169865        1       0.00000030       0.00557253      -0.11784253       0.00002537       0.00001293       0.00002613       0.00000086      -0.00000000       0.00000000      -0.05224041
P        0.00000077      12.23755416     -24.30004925        2       0.00000067       0.00714635       0.06148808       0.00004801       0.00003752       0.00004736       0.00000220       0.00000000      -0.00000000      -0.12915170
S        2.22899894       8.31196794     -27.60506566        3      -0.61912803       2.09725919      -0.05643382       0.00005261       0.00024884       0.00001416       0.00000008       0.00000298      -0.00005038      -0.47283983
S        1.62514606      11.38021794     -23.32340186        3       0.61912760       2.09725933       0.05643378       0.00005261       0.00024884       0.00001416      -0.00000008       0.00000298       0.00005038      -0.47283987
S        0.00000077      11.58636948     -26.17001998        4       0.00000026       0.03373611      -0.00644669       0.00002256       0.00001297       0.00004926       0.00000795      -0.00000000       0.00000000      -0.07522717
S        3.85414500      11.18530642     -26.73905878        5       0.00000000      -0.09529595      -0.08461898       0.00002827       0.00003738       0.00002168      -0.00000445      -0.00000000       0.00000000      -0.07235209
S        0.00000077       8.11705642     -24.18940873        5       0.00000030      -0.09529595       0.08461898       0.00002827       0.00003738       0.00002168       0.00000445       0.00000000       0.00000000      -0.07235209
Li       1.86742848       9.50629879     -27.63106404        0       0.67076109      -2.07283877       0.10329367       0.00004869       0.00024979       0.00000963      -0.00000362       0.00000177      -0.00006389      -0.46160469
Li       1.98671652       6.43804879     -31.94817403        0      -0.67076144      -2.07283873      -0.10329368       0.00004869       0.00024979       0.00000963       0.00000362       0.00000177       0.00006389      -0.46160469
Li       3.85414500      12.18716809     -28.84215414        1       0.00000000       0.00557253       0.11784253       0.00002537       0.00001293       0.00002613      -0.00000086       0.00000000      -0.00000000      -0.05224041
Li       0.00000077       9.11891809     -30.73708393        1       0.00000030       0.00557253      -0.11784253       0.00002537       0.00001293       0.00002613       0.00000086      -0.00000000       0.00000000      -0.05224041
P        0.00000077      12.23755416     -28.62543452        2       0.00000067       0.00714635       0.06148808       0.00004801       0.00003752       0.00004736       0.00000220       0.00000000      -0.00000000      -0.12915170
S        2.22899894       8.31196794     -31.93045093        3      -0.61912803       2.09725919      -0.05643382       0.00005261       0.00024884       0.00001416       0.00000008       0.00000298      -0.00005038      -0.47283983
S        1.62514606      11.38021794     -27.64878714        3       0.61912760       2.09725933       0.05643378       0.00005261       0.00024884       0.00001416      -0.00000008       0.00000298       0.00005038      -0.47283987
S        0.00000077      11.58636948     -30.49540526        4       0.00000026       0.03373611      -0.00644669       0.00002256       0.00001297       0.00004926       0.00000795      -0.00000000       0.00000000      -0.07522717
S        3.85414500      11.18530642     -31.06444406        5       0.00000000      -0.09529595      -0.08461898       0.00002827       0.00003738       0.00002168      -0.00000445      -0.00000000       0.00000000      -0.07235209
S        0.00000077       8.11705642     -28.51479401        5       0.00000030      -0.09529595       0.08461898       0.00002827       0.00003738       0.00002168       0.00000445       0.00000000       0.00000000      -0.07235209
Li       1.86742848       9.50629879     -31.95644932        0       0.67076109      -2.07283877       0.10329367       0.00004869       0.00024979       0.00000963      -0.00000362       0.00000177      -0.00006389      -0.46160469
Li       1.98671652       6.43804879     -36.27355931        0      -0.67076144      -2.07283873      -0.10329368       0.00004869       0.00024979       0.00000963       0.00000362       0.00000177       0.00006389      -0.46160469
Li       3.85414500      12.18716809     -33.16753942        1       0.00000000       0.00557253       0.11784253       0.00002537       0.00001293       0.00002613      -0.00000086       0.00000000      -0.00000000      -0.05224041
Li       0.00000077       9.11891809     -35.06246921        1       0.00000030       0.00557253      -0.11784253       0.00002537       0.00001293       0.00002613       0.00000086      -0.00000000       0.00000000      -0.05224041
P        0.00000077      12.23755416     -32.95081980        2       0.00000067       0.00714635       0.06148808       0.00004801       0.00003752       0.00004736       0.00000220       0.00000000      -0.00000000      -0.12915170
S        2.22899894       8.31196794     -36.25583621        3      -0.61912803       2.09725919      -0.05643382       0.00005261       0.00024884       0.00001416       0.00000008       0.00000298      -0.00005038      -0.47283983
S        1.62514606      11.38021794     -31.97417241        3       0.61912760       2.09725933       0.05643378       0.00005261       0.00024884       0.00001416      -0.00000008       0.00000298       0.00005038      -0.47283987
S        0.00000077      11.58636948     -34.82079054        4       0.00000026       0.03373611      -0.00644669       0.00002256       0.00001297       0.00004926       0.00000795      -0.00000000       0.00000000      -0.07522717
S        3.85414500      11.18530642     -35.38982934        5       0.00000000      -0.09529595      -0.08461898       0.00002827       0.00003738       0.00002168      -0.00000445      -0.00000000       0.00000000      -0.07235209
S        0.00000077       8.11705642     -32.84017929        5       0.00000030      -0.09529595       0.08461898       0.00002827       0.00003738       0.00002168       0.00000445       0.00000000       0.00000000      -0.07235209
Li       1.86742848       9.50629879     -36.28183460        0       0.67076109      -2.07283877       0.10329367       0.00004869       0.00024979       0.00000963      -0.00000362       0.00000177      -0.00006389      -0.46160469
Li       1.92881755       6.24670172     -40.60305975        0       0.01904601       0.04198416       0.03736937       0.00000934       0.00001566       0.00000332      -0.00000263      -0.00000038      -0.00000039      -0.02317842
Li       3.85414500      12.18716809     -37.49292470        1       0.00000000       0.00556890       0.11783632       0.00002537       0.00001293       0.00002613      -0.00000086       0.00000000      -0.00000000      -0.05224167
Li       0.00000077       9.11892705     -39.38777341        1       0.00000010       0.00585640       0.01495315       0.00000936       0.00000987       0.00001004      -0.00000099      -0.00000000      -0.00000000      -0.02143967
P        0.00000077      12.23755416     -37.27620508        2       0.00000067       0.00712561       0.06143840       0.00004801       0.00003752       0.00004736       0.00000221       0.00000000      -0.00000000      -0.12915953
S        2.17106759       8.50332127     -40.58534535        3       0.08524617      -0.01947146       0.08616502       0.00002034       0.00001573       0.00000669       0.00000441       0.00000647       0.00000620      -0.03939646
S        1.62514606      11.38021794     -36.29955769        3       0.61912760       2.09725933       0.05643378       0.00005261       0.00024884       0.00001416      -0.00000008       0.00000298       0.00005038      -0.47283987
S        0.00000077      11.58636476     -39.14608889        4       0.00000007       0.04438730       0.14020422       0.00000761       0.00001212       0.00003038       0.00000742      -0.00000000       0.00000000      -0.04491472
S        3.85414500      11.18529246     -39.71514904        5       0.00000000      -0.10489027       0.01757719       0.00001077       0.00003153       0.00000949      -0.00000130      -0.00000000       0.00000000      -0.04670462
S        0.00000077       8.11705642     -37.16556457        5       0.00000030      -0.09529141       0.08461083       0.00002827       0.00003738       0.00002169       0.00000445       0.00000000       0.00000000      -0.07235373
Li       5.78296255      15.45145172      -6.00002248        0       0.01904599       0.04198423      -0.03736930       0.00000934       0.00001566       0.00000332       0.00000263       0.00000038      -0.00000039      -0.02317840
Li       1.92532745      15.45145172      -6.00002248        0      -0.01904611       0.04198414      -0.03736937       0.00000934       0.00001566       0.00000332       0.00000263      -0.00000038       0.00000039      -0.02317843
Li       1.98671652      12.57454879     -10.32124764        0      -0.67076144      -2.07283873      -0.10329368       0.00004869       0.00024979       0.00000963       0.00000362       0.00000177       0.00006389      -0.46160469
Li       3.85414500      18.32367705      -7.21530882        1       0.00000000       0.00585640      -0.01495315       0.00000936       0.00000987       0.00001004       0.00000099       0.00000000      -0.00000000      -0.02143967
Li       0.00000077      15.25541809      -9.11015754        1       0.00000030       0.00556890      -0.11783632       0.00002537       0.00001293       0.00002613       0.00000086      -0.00000000       0.00000000      -0.05224167
P        3.85414500      15.30580416      -9.32687715        2       0.00000000       0.00712561      -0.06143840       0.00004801       0.00003752       0.00004736      -0.00000221      -0.00000000      -0.00000000      -0.12915953