120
Lattice="-8.332061388684136e-16 18.902143879634398 0.0 7.821576777779748 18.25034581481942 0.0 0.0 0.0 -20.775098244979997" Properties=species:S:1:pos:R:3:spacegroup_kinds:I:1:forces:R:3:stresses:R:6:energies:R:1 spacegroup="I m -3 m" unit_cell=conventional occupancy="_JSON {\"0\": {\"Li\": 1.0}}" energy=-14.51662639283559 stress="0.0031813727694385324 1.185047504213613e-15 -3.795604895258313e-12 1.185047504213613e-15 0.003181372769440793 -8.856410263258293e-12 -3.795604895258313e-12 -8.856410263258293e-12 0.024152378117760314" free_energy=-14.51662639283559 pbc="T T T"
Li       0.00000020       0.00000046      -6.00622799        0       0.00000000       0.00000000      -0.44623644       0.00000000       0.00000000       0.00012704      -0.00000000      -0.00000000       0.00000000      -0.06473590
Li       0.97769710       2.28129323      -7.76124764        0      -0.00000004      -0.00000009      -0.44582481       0.00003314       0.00003314       0.00012704      -0.00000000      -0.00000000       0.00000000      -0.08785215
Li       0.00000020       0.00000046      -7.75501965        0       0.00000004       0.00000009       0.00986533       0.00003314       0.00003314       0.00025159      -0.00000000      -0.00000000       0.00000000      -0.15121454
Li       0.97769710       2.28129323      -9.51003930        0      -0.00000004      -0.00000009       0.01027695       0.00003314       0.00003314       0.00025159       0.00000000       0.00000000       0.00000000      -0.15121518
Li       0.00000020       0.00000046      -9.51003930        0       0.00000004       0.00000009      -0.00000000       0.00003314       0.00003314       0.00024910       0.00000000       0.00000000       0.00000000      -0.14984167
Li       0.97769710       2.28129323     -11.26505895        0      -0.00000004      -0.00000009       0.00000000       0.00003314       0.00003314       0.00024910       0.00000000       0.00000000       0.00000000      -0.14984167
Li       0.00000020       0.00000046     -11.26505895        0       0.00000004       0.00000009      -0.01027695       0.00003314       0.00003314       0.00025159       0.00000000       0.00000000       0.00000000      -0.15121518
Li       0.97769710       2.28129323     -13.02007860        0      -0.00000004      -0.00000009      -0.00986533       0.00003314       0.00003314       0.00025159      -0.00000000      -0.00000000       0.00000000      -0.15121454
Li       0.00000020       0.00000046     -13.01385060        0       0.00000004       0.00000009       0.44582481       0.00003314       0.00003314       0.00012704      -0.00000000      -0.00000000       0.00000000      -0.08785215
Li       0.97769710       2.28129323     -14.76887025        0      -0.00000000      -0.00000000       0.44623644       0.00000000       0.00000000       0.00012704      -0.00000000      -0.00000000       0.00000000      -0.06473590
Li       1.95539439       4.56258691      -6.00622799        0       0.00000000       0.00000000      -0.44623644       0.00000000       0.00000000       0.00012704      -0.00000000      -0.00000000       0.00000000      -0.06473590
Li       2.93309129       6.84387968      -7.76124764        0      -0.00000004      -0.00000009      -0.44582481       0.00003314       0.00003314       0.00012704      -0.00000000      -0.00000000       0.00000000      -0.08785215
Li       1.95539439       4.56258691      -7.75501965        0       0.00000004       0.00000009       0.00986533       0.00003314       0.00003314       0.00025159      -0.00000000      -0.00000000       0.00000000      -0.15121454
Li       2.93309129       6.84387968      -9.51003930        0      -0.00000004      -0.00000009       0.01027695       0.00003314       0.00003314       0.00025159       0.00000000       0.00000000       0.00000000      -0.15121518
Li       1.95539439       4.56258691      -9.51003930        0       0.00000004       0.00000009      -0.00000000       0.00003314       0.00003314       0.00024910       0.00000000       0.00000000       0.00000000      -0.14984167
Li       2.93309129       6.84387968     -11.26505895        0      -0.00000004      -0.00000009       0.00000000       0.00003314       0.00003314       0.00024910       0.00000000       0.00000000       0.00000000      -0.14984167
Li       1.95539439       4.56258691     -11.26505895        0       0.00000004       0.00000009      -0.01027695       0.00003314       0.00003314       0.00025159       0.00000000       0.00000000       0.00000000      -0.15121518
Li       2.93309129       6.84387968     -13.02007860        0      -0.00000004      -0.00000009      -0.00986533       0.00003314       0.00003314       0.00025159      -0.00000000      -0.00000000       0.00000000      -0.15121454
Li       1.95539439       4.56258691     -13.01385060        0       0.00000004       0.00000009       0.44582481       0.00003314       0.00003314       0.00012704      -0.00000000      -0.00000000       0.00000000      -0.08785215
Li       2.93309129       6.84387968     -14.76887025        0      -0.00000000      -0.00000000       0.44623644       0.00000000       0.00000000       0.00012704      -0.00000000      -0.00000000       0.00000000      -0.06473590
Li       0.65179826       7.82157723      -6.00622799        0       0.00000000       0.00000000      -0.44623644       0.00000000       0.00000000       0.00012704      -0.00000000      -0.00000000       0.00000000      -0.06473590
Li       1.62949516      10.10287000      -7.76124764        0      -0.00000004      -0.00000009      -0.44582481       0.00003314       0.00003314       0.00012704      -0.00000000      -0.00000000       0.00000000      -0.08785215
Li       0.65179826       7.82157724      -7.75501965        0       0.00000004       0.00000009       0.00986533       0.00003314       0.00003314       0.00025159      -0.00000000      -0.00000000       0.00000000      -0.15121454
Li       1.62949516      10.10287000      -9.51003930        0      -0.00000004      -0.00000009       0.01027695       0.00003314       0.00003314       0.00025159       0.00000000       0.00000000       0.00000000      -0.15121518
Li       0.65179826       7.82157724      -9.51003930        0       0.00000004       0.00000009      -0.00000000       0.00003314       0.00003314       0.00024910       0.00000000       0.00000000       0.00000000      -0.14984167
Li       1.62949516      10.10287000     -11.26505895        0      -0.00000004      -0.00000009       0.00000000       0.00003314       0.00003314       0.00024910       0.00000000       0.00000000       0.00000000      -0.14984167
Li       0.65179826       7.82157724     -11.26505895        0       0.00000004       0.00000009      -0.01027695       0.00003314       0.00003314       0.00025159       0.00000000       0.00000000       0.00000000      -0.15121518
Li       1.62949516      10.10287000     -13.02007860        0      -0.00000004      -0.00000009      -0.00986533       0.00003314       0.00003314       0.00025159      -0.00000000      -0.00000000       0.00000000      -0.15121454
Li       0.65179826       7.82157724     -13.01385060        0       0.00000004       0.00000009       0.44582481       0.00003314       0.00003314       0.00012704      -0.00000000      -0.00000000       0.00000000      -0.08785215
Li       1.62949516      10.10287000     -14.76887025        0      -0.00000000      -0.00000000       0.44623644       0.00000000       0.00000000       0.00012704      -0.00000000      -0.00000000       0.00000000      -0.06473590
Li       3.91078858       9.12517336      -6.00622799        0       0.00000000       0.00000000      -0.44623644       0.00000000       0.00000000       0.00012704      -0.00000000      -0.00000000       0.00000000      -0.06473590
Li       4.88848549      11.40646613      -7.76124764        0      -0.00000004      -0.00000009      -0.44582481       0.00003314       0.00003314       0.00012704      -0.00000000      -0.00000000       0.00000000      -0.08785215
Li       3.91078858       9.12517336      -7.75501965        0       0.00000004       0.00000009       0.00986533       0.00003314       0.00003314       0.00025159      -0.00000000      -0.00000000       0.00000000      -0.15121454
Li       4.88848549      11.40646613      -9.51003930        0      -0.00000004      -0.00000009       0.01027695       0.00003314       0.00003314       0.00025159       0.00000000       0.00000000       0.00000000      -0.15121518
Li       3.91078858       9.12517336      -9.51003930        0       0.00000004       0.00000009      -0.00000000       0.00003314       0.00003314       0.00024910       0.00000000       0.00000000       0.00000000      -0.14984167
Li       4.88848549      11.40646613     -11.26505895        0      -0.00000004      -0.00000009       0.00000000       0.00003314       0.00003314       0.00024910       0.00000000       0.00000000       0.00000000      -0.14984167
Li       3.91078858       9.12517336     -11.26505895        0       0.00000004       0.00000009      -0.01027695       0.00003314       0.00003314       0.00025159       0.00000000       0.00000000       0.00000000      -0.15121518
Li       4.88848549      11.40646613     -13.02007860        0      -0.00000004      -0.00000009      -0.00986533       0.00003314       0.00003314       0.00025159      -0.00000000      -0.00000000       0.00000000      -0.15121454
Li       3.91078858       9.12517336     -13.01385060        0       0.00000004       0.00000009       0.44582481       0.00003314       0.00003314       0.00012704      -0.00000000      -0.00000000       0.00000000      -0.08785215
Li       4.88848549      11.40646613     -14.76887025        0      -0.00000000      -0.00000000       0.44623644       0.00000000       0.00000000       0.00012704      -0.00000000      -0.00000000       0.00000000      -0.06473590
Li       0.32589903      13.36186033      -7.76124764        0      -0.00000004      -0.00000009      -0.44582481       0.00003314       0.00003314       0.00012704      -0.00000000      -0.00000000       0.00000000      -0.08785215
Li       0.32589903      13.36186033      -9.51003930        0      -0.00000004      -0.00000009       0.01027695       0.00003314       0.00003314       0.00025159       0.00000000       0.00000000       0.00000000      -0.15121518
Li       0.32589903      13.36186033     -11.26505895        0      -0.00000004      -0.00000009       0.00000000       0.00003314       0.00003314       0.00024910       0.00000000       0.00000000       0.00000000      -0.14984167
Li       0.32589903      13.36186033     -13.02007860        0      -0.00000004      -0.00000009      -0.00986533       0.00003314       0.00003314       0.00025159      -0.00000000      -0.00000000       0.00000000      -0.15121454
Li       0.32589903      13.36186033     -14.76887025        0      -0.00000000      -0.00000000       0.44623644       0.00000000       0.00000000       0.00012704      -0.00000000      -0.00000000       0.00000000      -0.06473590
Li       2.60719245      12.38416369      -6.00622799        0       0.00000000       0.00000000      -0.44623644       0.00000000       0.00000000       0.00012704      -0.00000000      -0.00000000       0.00000000      -0.06473590
Li       3.58488936      14.66545646      -7.76124764        0      -0.00000004      -0.00000009      -0.44582481       0.00003314       0.00003314       0.00012704      -0.00000000      -0.00000000       0.00000000      -0.08785215
Li       2.60719246      12.38416369      -7.75501965        0       0.00000004       0.00000009       0.00986533       0.00003314       0.00003314       0.00025159      -0.00000000      -0.00000000       0.00000000      -0.15121454
Li       3.58488936      14.66545646      -9.51003930        0      -0.00000004      -0.00000009       0.01027695       0.00003314       0.00003314       0.00025159       0.00000000       0.00000000       0.00000000      -0.15121518
Li       2.60719246      12.38416369      -9.51003930        0       0.00000004       0.00000009      -0.00000000       0.00003314       0.00003314       0.00024910       0.00000000       0.00000000       0.00000000      -0.14984167
Li       3.58488936      14.66545646     -11.26505895        0      -0.00000004      -0.00000009       0.00000000       0.00003314       0.00003314       0.00024910       0.00000000       0.00000000       0.00000000      -0.14984167
Li       2.60719246      12.38416369     -11.26505895        0       0.00000004       0.00000009      -0.01027695       0.00003314       0.00003314       0.00025159       0.00000000       0.00000000       0.00000000      -0.15121518
Li       3.58488936      14.66545646     -13.02007860        0      -0.00000004      -0.00000009      -0.00986533       0.00003314       0.00003314       0.00025159      -0.00000000      -0.00000000       0.00000000      -0.15121454
Li       2.60719246      12.38416369     -13.01385060        0       0.00000004       0.00000009       0.44582481       0.00003314       0.00003314       0.00012704      -0.00000000      -0.00000000       0.00000000      -0.08785215
Li       3.58488936      14.66545646     -14.76887025        0      -0.00000000      -0.00000000       0.44623644       0.00000000       0.00000000       0.00012704      -0.00000000      -0.00000000       0.00000000      -0.06473590
Li       5.86618278      32.58990370      -6.00622799        0       0.00000000       0.00000000      -0.44623644       0.00000000       0.00000000       0.00012704      -0.00000000      -0.00000000       0.00000000      -0.06473590
Li       6.84387968      34.87119647      -7.76124764        0      -0.00000004      -0.00000009      -0.44582481       0.00003314       0.00003314       0.00012704      -0.00000000      -0.00000000       0.00000000      -0.08785215
Li       5.86618278      32.58990370      -7.75501965        0       0.00000004       0.00000009       0.00986533       0.00003314       0.00003314       0.00025159      -0.00000000      -0.00000000       0.00000000      -0.15121454
Li       6.84387968      34.87119647      -9.51003930        0      -0.00000004      -0.00000009       0.01027695       0.00003314       0.00003314       0.00025159       0.00000000       0.00000000       0.00000000      -0.15121518
Li       5.86618278      32.58990370      -9.51003930        0       0.00000004       0.00000009      -0.00000000       0.00003314       0.00003314       0.00024910       0.00000000       0.00000000       0.00000000      -0.14984167
Li       6.84387968      34.87119647     -11.26505895        0      -0.00000004      -0.00000009       0.00000000       0.00003314       0.00003314       0.00024910       0.00000000       0.00000000       0.00000000      -0.14984167
Li       5.86618278      32.58990370     -11.26505895        0       0.00000004       0.00000009      -0.01027695       0.00003314       0.00003314       0.00025159       0.00000000       0.00000000       0.00000000      -0.15121518
Li       6.84387968      34.87119647     -13.02007860        0      -0.00000004      -0.00000009      -0.00986533       0.00003314       0.00003314       0.00025159      -0.00000000      -0.00000000       0.00000000      -0.15121454
Li       5.86618278      32.58990370     -13.01385060        0       0.00000004       0.00000009       0.44582481       0.00003314       0.00003314       0.00012704      -0.00000000      -0.00000000       0.00000000      -0.08785215
Li       6.84387968      34.87119647     -14.76887025        0      -0.00000000      -0.00000000       0.44623644       0.00000000       0.00000000       0.00012704      -0.00000000      -0.00000000       0.00000000      -0.06473590
Li       1.30359633      15.64315401      -6.00622799        0       0.00000000       0.00000000      -0.44623644       0.00000000       0.00000000       0.00012704      -0.00000000      -0.00000000       0.00000000      -0.06473590
Li       2.28129323      17.92444678      -7.76124764        0      -0.00000004      -0.00000009      -0.44582481       0.00003314       0.00003314       0.00012704      -0.00000000      -0.00000000       0.00000000      -0.08785215
Li       1.30359633      15.64315401      -7.75501965        0       0.00000004       0.00000009       0.00986533       0.00003314       0.00003314       0.00025159      -0.00000000      -0.00000000       0.00000000      -0.15121454
Li       2.28129323      17.92444678      -9.51003930        0      -0.00000004      -0.00000009       0.01027695       0.00003314       0.00003314       0.00025159       0.00000000       0.00000000       0.00000000      -0.15121518
Li       1.30359633      15.64315401      -9.51003930        0       0.00000004       0.00000009      -0.00000000       0.00003314       0.00003314       0.00024910       0.00000000       0.00000000       0.00000000      -0.14984167
Li       2.28129323      17.92444678     -11.26505895        0      -0.00000004      -0.00000009       0.00000000       0.00003314       0.00003314       0.00024910       0.00000000       0.00000000       0.00000000      -0.14984167
Li       1.30359633      15.64315401     -11.26505895        0       0.00000004       0.00000009      -0.01027695       0.00003314       0.00003314       0.00025159       0.00000000       0.00000000       0.00000000      -0.15121518
Li       2.28129323      17.92444678     -13.02007860        0      -0.00000004      -0.00000009      -0.00986533       0.00003314       0.00003314       0.00025159      -0.00000000      -0.00000000       0.00000000      -0.15121454
Li       1.30359633      15.64315401     -13.01385060        0       0.00000004       0.00000009       0.44582481       0.00003314       0.00003314       0.00012704      -0.00000000      -0.00000000       0.00000000      -0.08785215
Li       2.28129323      17.92444678     -14.76887025        0      -0.00000000      -0.00000000       0.44623644       0.00000000       0.00000000       0.00012704      -0.00000000      -0.00000000       0.00000000      -0.06473590
Li       4.56258665      16.94675014      -6.00622799        0       0.00000000       0.00000000      -0.44623644       0.00000000       0.00000000       0.00012704      -0.00000000      -0.00000000       0.00000000      -0.06473590
Li       5.54028355      19.22804291      -7.76124764        0      -0.00000004      -0.00000009      -0.44582481       0.00003314       0.00003314       0.00012704      -0.00000000      -0.00000000       0.00000000      -0.08785215
Li       4.56258665      16.94675014      -7.75501965        0       0.00000004       0.00000009       0.00986533       0.00003314       0.00003314       0.00025159      -0.00000000      -0.00000000       0.00000000      -0.15121454
Li       5.54028355      19.22804291      -9.51003930        0      -0.00000004      -0.00000009       0.01027695       0.00003314       0.00003314       0.00025159       0.00000000       0.00000000       0.00000000      -0.15121518
Li       4.56258665      16.94675014      -9.51003930        0       0.00000004       0.00000009      -0.00000000       0.00003314       0.00003314       0.00024910       0.00000000       0.00000000       0.00000000      -0.14984167
Li       5.54028355      19.22804291     -11.26505895        0      -0.00000004      -0.00000009       0.00000000       0.00003314       0.00003314       0.00024910       0.00000000       0.00000000       0.00000000      -0.14984167
Li       4.56258665      16.94675014     -11.26505895        0       0.00000004       0.00000009      -0.01027695       0.00003314       0.00003314       0.00025159       0.00000000       0.00000000       0.00000000      -0.15121518
Li       5.54028355      19.22804291     -13.02007860        0      -0.00000004      -0.00000009      -0.00986533       0.00003314       0.00003314       0.00025159      -0.00000000      -0.00000000       0.00000000      -0.15121454
Li       4.56258665      16.94675014     -13.01385060        0       0.00000004       0.00000009       0.44582481       0.00003314       0.00003314       0.00012704      -0.00000000      -0.00000000       0.00000000      -0.08785215
Li       5.54028355      19.22804291     -14.76887025        0      -0.00000000      -0.00000000       0.44623644       0.00000000       0.00000000       0.00012704      -0.00000000      -0.00000000       0.00000000      -0.06473590
Li       3.25899052      20.20574047      -6.00622799        0       0.00000000       0.00000000      -0.44623644       0.00000000       0.00000000       0.00012704      -0.00000000      -0.00000000       0.00000000      -0.06473590
Li       4.23668742      22.48703323      -7.76124764        0      -0.00000004      -0.00000009      -0.44582481       0.00003314       0.00003314       0.00012704      -0.00000000      -0.00000000       0.00000000      -0.08785215
Li       3.25899052      20.20574047      -7.75501965        0       0.00000004       0.00000009       0.00986533       0.00003314       0.00003314       0.00025159      -0.00000000      -0.00000000       0.00000000      -0.15121454
Li       4.23668742      22.48703323      -9.51003930        0      -0.00000004      -0.00000009       0.01027695       0.00003314       0.00003314       0.00025159       0.00000000       0.00000000       0.00000000      -0.15121518
Li       3.25899052      20.20574047      -9.51003930        0       0.00000004       0.00000009      -0.00000000       0.00003314       0.00003314       0.00024910       0.00000000       0.00000000       0.00000000      -0.14984167
Li       4.23668742      22.48703323     -11.26505895        0      -0.00000004      -0.00000009       0.00000000       0.00003314       0.00003314       0.00024910       0.00000000       0.00000000       0.00000000      -0.14984167
Li       3.25899052      20.20574047     -11.26505895        0       0.00000004       0.00000009      -0.01027695       0.00003314       0.00003314       0.00025159       0.00000000       0.00000000       0.00000000      -0.15121518
Li       4.23668742      22.48703323     -13.02007860        0      -0.00000004      -0.00000009      -0.00986533       0.00003314       0.00003314       0.00025159      -0.00000000      -0.00000000       0.00000000      -0.15121454
Li       3.25899052      20.20574047     -13.01385060        0       0.00000004       0.00000009       0.44582481       0.00003314       0.00003314       0.00012704      -0.00000000      -0.00000000       0.00000000      -0.08785215
Li       4.23668742      22.48703324     -14.76887025        0      -0.00000000      -0.00000000       0.44623644       0.00000000       0.00000000       0.00012704      -0.00000000      -0.00000000       0.00000000      -0.06473590
Li       6.51798084      21.50933660      -6.00622799        0       0.00000000       0.00000000      -0.44623644       0.00000000       0.00000000       0.00012704      -0.00000000      -0.00000000       0.00000000      -0.06473590
Li       7.49567774      23.79062936      -7.76124764        0      -0.00000004      -0.00000009      -0.44582481       0.00003314       0.00003314       0.00012704      -0.00000000      -0.00000000       0.00000000      -0.08785215
Li       6.51798084      21.50933660      -7.75501965        0       0.00000004       0.00000009       0.00986533       0.00003314       0.00003314       0.00025159      -0.00000000      -0.00000000       0.00000000      -0.15121454
Li       7.49567774      23.79062936      -9.51003930        0      -0.00000004      -0.00000009       0.01027695       0.00003314       0.00003314       0.00025159       0.00000000       0.00000000       0.00000000      -0.15121518
Li       6.51798084      21.50933660      -9.51003930        0       0.00000004       0.00000009      -0.00000000       0.00003314       0.00003314       0.00024910       0.00000000       0.00000000       0.00000000      -0.14984167
Li       7.49567774      23.79062936     -11.26505895        0      -0.00000004      -0.00000009       0.00000000       0.00003314       0.00003314       0.00024910       0.00000000       0.00000000       0.00000000      -0.14984167
Li       6.51798084      21.50933660     -11.26505895        0       0.00000004       0.00000009      -0.01027695       0.00003314       0.00003314       0.00025159       0.00000000       0.00000000       0.00000000      -0.15121518
Li       7.49567774      23.79062936     -13.02007860        0      -0.00000004      -0.00000009      -0.00986533       0.00003314       0.00003314       0.00025159      -0.00000000      -0.00000000       0.00000000      -0.15121454
Li       6.51798084      21.50933660     -13.01385060        0       0.00000004       0.00000009       0.44582481       0.00003314       0.00003314       0.00012704      -0.00000000      -0.00000000       0.00000000      -0.08785215
Li       7.49567775      23.79062937     -14.76887025        0      -0.00000000      -0.00000000       0.44623644       0.00000000       0.00000000       0.00012704      -0.00000000      -0.00000000       0.00000000      -0.06473590
Li       5.21438471      24.76832692      -6.00622799        0       0.00000000       0.00000000      -0.44623644       0.00000000       0.00000000       0.00012704      -0.00000000      -0.00000000       0.00000000      -0.06473590
Li       6.19208162      27.04961969      -7.76124764        0      -0.00000004      -0.00000009      -0.44582481       0.00003314       0.00003314       0.00012704      -0.00000000      -0.00000000       0.00000000      -0.08785215
Li       5.21438471      24.76832692      -7.75501965        0       0.00000004       0.00000009       0.00986533       0.00003314       0.00003314       0.00025159      -0.00000000      -0.00000000       0.00000000      -0.15121454
Li       6.19208162      27.04961969      -9.51003930        0      -0.00000004      -0.00000009       0.01027695       0.00003314       0.00003314       0.00025159       0.00000000       0.00000000       0.00000000      -0.15121518
Li       5.21438471      24.76832692      -9.51003930        0       0.00000004       0.00000009      -0.00000000       0.00003314       0.00003314       0.00024910       0.00000000       0.00000000       0.00000000      -0.14984167
Li       6.19208162      27.04961969     -11.26505895        0      -0.00000004      -0.00000009       0.00000000       0.00003314       0.00003314       0.00024910       0.00000000       0.00000000       0.00000000      -0.14984167
Li       5.21438471      24.76832692     -11.26505895        0       0.00000004       0.00000009      -0.01027695       0.00003314       0.00003314       0.00025159       0.00000000       0.00000000       0.00000000      -0.15121518
Li       6.19208162      27.04961969     -13.02007860        0      -0.00000004      -0.00000009      -0.00986533       0.00003314       0.00003314       0.00025159      -0.00000000      -0.00000000       0.00000000      -0.15121454
Li       5.21438471      24.76832692     -13.01385060        0       0.00000004       0.00000009       0.44582481       0.00003314       0.00003314       0.00012704      -0.00000000      -0.00000000       0.00000000      -0.08785215
Li       6.19208162      27.04961969     -14.76887025        0      -0.00000000      -0.00000000       0.44623644       0.00000000       0.00000000       0.00012704      -0.00000000      -0.00000000       0.00000000      -0.06473590
Li       7.16977891      29.33091337      -6.00622799        0       0.00000000       0.00000000      -0.44623644       0.00000000       0.00000000       0.00012704      -0.00000000      -0.00000000       0.00000000      -0.06473590
Li       7.16977891      29.33091337      -7.75501965        0       0.00000004       0.00000009       0.00986533       0.00003314       0.00003314       0.00025159      -0.00000000      -0.00000000       0.00000000      -0.15121454
Li       7.16977891      29.33091337      -9.51003930        0       0.00000004       0.00000009      -0.00000000       0.00003314       0.00003314       0.00024910       0.00000000       0.00000000       0.00000000      -0.14984167
Li       7.16977891      29.33091337     -11.26505895        0       0.00000004       0.00000009      -0.01027695       0.00003314       0.00003314       0.00025159       0.00000000       0.00000000       0.00000000      -0.15121518
Li       7.16977891      29.33091337     -13.01385060        0       0.00000004       0.00000009       0.44582481       0.00003314       0.00003314       0.00012704      -0.00000000      -0.00000000       0.00000000      -0.08785215
