   4   4   0   0
  0.1099235E+03  0.5933265E-09  0.5933265E-09  0.2498004E-08  0.5000000E-15
  1.000000000000000E-004
  CAR 
 unknown system                          
      3.33334520     -5.12363502  301     -1.56630848      1.00000000
     -5.124  0.0000E+00  0.0000E+00
     -5.095  0.0000E+00  0.0000E+00
     -5.067  0.0000E+00  0.0000E+00
     -5.039  0.0000E+00  0.0000E+00
     -5.011  0.0000E+00  0.0000E+00
     -4.983  0.0000E+00  0.0000E+00
     -4.954  0.0000E+00  0.0000E+00
     -4.926  0.0000E+00  0.0000E+00
     -4.898  0.0000E+00  0.0000E+00
     -4.870  0.0000E+00  0.0000E+00
     -4.842  0.0000E+00  0.0000E+00
     -4.814  0.0000E+00  0.0000E+00
     -4.785  0.0000E+00  0.0000E+00
     -4.757  0.0000E+00  0.0000E+00
     -4.729  0.0000E+00  0.0000E+00
     -4.701  0.1313E-14  0.3701E-16
     -4.673  0.3107E-13  0.9129E-15
     -4.644  0.6669E-12  0.1971E-13
     -4.616  0.1214E-10  0.3619E-12
     -4.588  0.1889E-09  0.5686E-11
     -4.560  0.2510E-08  0.7645E-10
     -4.532  0.2850E-07  0.8800E-09
     -4.503  0.2766E-06  0.8677E-08
     -4.475  0.2293E-05  0.7332E-07
     -4.447  0.1625E-04  0.5313E-06
     -4.419  0.9835E-04  0.3304E-05
     -4.391  0.5089E-03  0.1765E-04
     -4.363  0.2250E-02  0.8108E-04
     -4.334  0.8504E-02  0.3208E-03
     -4.306  0.2747E-01  0.1095E-02
     -4.278  0.7584E-01  0.3233E-02
     -4.250  0.1790E+00  0.8278E-02
     -4.222  0.3610E+00  0.1846E-01
     -4.193  0.6226E+00  0.3601E-01
     -4.165  0.9177E+00  0.6187E-01
     -4.137  0.1156E+01  0.9447E-01
     -4.109  0.1245E+01  0.1296E+00
     -4.081  0.1147E+01  0.1619E+00
     -4.052  0.9026E+00  0.1873E+00
     -4.024  0.6073E+00  0.2045E+00
     -3.996  0.3493E+00  0.2143E+00
     -3.968  0.1717E+00  0.2192E+00
     -3.940  0.7217E-01  0.2212E+00
     -3.911  0.2592E-01  0.2219E+00
     -3.883  0.7961E-02  0.2221E+00
     -3.855  0.2100E-02  0.2222E+00
     -3.827  0.5492E-03  0.2222E+00
     -3.799  0.5847E-03  0.2222E+00
     -3.771  0.2608E-02  0.2223E+00
     -3.742  0.1162E-01  0.2226E+00
     -3.714  0.4452E-01  0.2239E+00
     -3.686  0.1459E+00  0.2280E+00
     -3.658  0.4089E+00  0.2395E+00
     -3.630  0.9803E+00  0.2672E+00
     -3.601  0.2010E+01  0.3238E+00
     -3.573  0.3525E+01  0.4232E+00
     -3.545  0.5288E+01  0.5723E+00
     -3.517  0.6787E+01  0.7636E+00
     -3.489  0.7450E+01  0.9736E+00
     -3.460  0.6997E+01  0.1171E+01
     -3.432  0.5621E+01  0.1329E+01
     -3.404  0.3863E+01  0.1438E+01
     -3.376  0.2271E+01  0.1502E+01
     -3.348  0.1142E+01  0.1534E+01
     -3.319  0.4915E+00  0.1548E+01
     -3.291  0.1809E+00  0.1553E+01
     -3.263  0.5696E-01  0.1555E+01
     -3.235  0.1534E-01  0.1555E+01
     -3.207  0.3534E-02  0.1556E+01
     -3.179  0.6963E-03  0.1556E+01
     -3.150  0.1173E-03  0.1556E+01
     -3.122  0.1691E-04  0.1556E+01
     -3.094  0.2085E-05  0.1556E+01
     -3.066  0.2198E-06  0.1556E+01
     -3.038  0.1981E-07  0.1556E+01
     -3.009  0.1529E-08  0.1556E+01
     -2.981  0.1314E-09  0.1556E+01
     -2.953  0.4780E-09  0.1556E+01
     -2.925  0.6196E-08  0.1556E+01
     -2.897  0.6944E-07  0.1556E+01
     -2.868  0.6649E-06  0.1556E+01
     -2.840  0.5441E-05  0.1556E+01
     -2.812  0.3805E-04  0.1556E+01
     -2.784  0.2274E-03  0.1556E+01
     -2.756  0.1162E-02  0.1556E+01
     -2.727  0.5075E-02  0.1556E+01
     -2.699  0.1896E-01  0.1556E+01
     -2.671  0.6063E-01  0.1558E+01
     -2.643  0.1661E+00  0.1563E+01
     -2.615  0.3905E+00  0.1574E+01
     -2.587  0.7904E+00  0.1596E+01
     -2.558  0.1384E+01  0.1635E+01
     -2.530  0.2113E+01  0.1695E+01
     -2.502  0.2846E+01  0.1775E+01
     -2.474  0.3436E+01  0.1872E+01
     -2.446  0.3781E+01  0.1978E+01
     -2.417  0.3840E+01  0.2086E+01
     -2.389  0.3607E+01  0.2188E+01
     -2.361  0.3107E+01  0.2276E+01
     -2.333  0.2414E+01  0.2344E+01
     -2.305  0.1665E+01  0.2391E+01
     -2.276  0.1006E+01  0.2419E+01
     -2.248  0.5269E+00  0.2434E+01
     -2.220  0.2381E+00  0.2441E+01
     -2.192  0.9240E-01  0.2443E+01
     -2.164  0.3074E-01  0.2444E+01
     -2.136  0.8766E-02  0.2444E+01
     -2.107  0.2188E-02  0.2444E+01
     -2.079  0.7384E-03  0.2444E+01
     -2.051  0.1450E-02  0.2444E+01
     -2.023  0.5484E-02  0.2445E+01
     -1.995  0.1868E-01  0.2445E+01
     -1.966  0.5452E-01  0.2447E+01
     -1.938  0.1363E+00  0.2451E+01
     -1.910  0.2925E+00  0.2459E+01
     -1.882  0.5414E+00  0.2474E+01
     -1.854  0.8733E+00  0.2499E+01
     -1.825  0.1254E+01  0.2534E+01
     -1.797  0.1669E+01  0.2581E+01
     -1.769  0.2182E+01  0.2643E+01
     -1.741  0.2947E+01  0.2726E+01
     -1.713  0.4121E+01  0.2842E+01
     -1.684  0.5705E+01  0.3003E+01
     -1.656  0.7424E+01  0.3212E+01
     -1.628  0.8768E+01  0.3459E+01
     -1.600  0.9211E+01  0.3719E+01
     -1.572  0.8512E+01  0.3959E+01
     -1.544  0.6870E+01  0.4152E+01
     -1.515  0.4818E+01  0.4288E+01
     -1.487  0.2926E+01  0.4371E+01
     -1.459  0.1536E+01  0.4414E+01
     -1.431  0.7053E+00  0.4434E+01
     -1.403  0.3189E+00  0.4443E+01
     -1.374  0.2516E+00  0.4450E+01
     -1.346  0.4722E+00  0.4463E+01
     -1.318  0.1059E+01  0.4493E+01
     -1.290  0.2125E+01  0.4553E+01
     -1.262  0.3668E+01  0.4656E+01
     -1.233  0.5422E+01  0.4809E+01
     -1.205  0.6862E+01  0.5003E+01
     -1.177  0.7435E+01  0.5212E+01
     -1.149  0.6898E+01  0.5407E+01
     -1.121  0.5479E+01  0.5561E+01
     -1.092  0.3727E+01  0.5666E+01
     -1.064  0.2170E+01  0.5727E+01
     -1.036  0.1082E+01  0.5758E+01
     -1.008  0.4622E+00  0.5771E+01
     -0.980  0.1690E+00  0.5776E+01
     -0.952  0.5291E-01  0.5777E+01
     -0.923  0.1418E-01  0.5778E+01
     -0.895  0.3255E-02  0.5778E+01
     -0.867  0.6397E-03  0.5778E+01
     -0.839  0.1076E-03  0.5778E+01
     -0.811  0.1550E-04  0.5778E+01
     -0.782  0.1911E-05  0.5778E+01
     -0.754  0.2016E-06  0.5778E+01
     -0.726  0.1822E-07  0.5778E+01
     -0.698  0.1642E-08  0.5778E+01
     -0.670  0.3387E-08  0.5778E+01
     -0.641  0.3958E-07  0.5778E+01
     -0.613  0.4068E-06  0.5778E+01
     -0.585  0.3581E-05  0.5778E+01
     -0.557  0.2699E-04  0.5778E+01
     -0.529  0.1743E-03  0.5778E+01
     -0.500  0.9645E-03  0.5778E+01
     -0.472  0.4577E-02  0.5778E+01
     -0.444  0.1863E-01  0.5778E+01
     -0.416  0.6514E-01  0.5780E+01
     -0.388  0.1957E+00  0.5786E+01
     -0.360  0.5059E+00  0.5800E+01
     -0.331  0.1127E+01  0.5832E+01
     -0.303  0.2165E+01  0.5893E+01
     -0.275  0.3598E+01  0.5994E+01
     -0.247  0.5182E+01  0.6140E+01
     -0.219  0.6484E+01  0.6323E+01
     -0.190  0.7076E+01  0.6523E+01
     -0.162  0.6779E+01  0.6714E+01
     -0.134  0.5770E+01  0.6876E+01
     -0.106  0.4473E+01  0.7003E+01
     -0.078  0.3300E+01  0.7096E+01
     -0.049  0.2458E+01  0.7165E+01
     -0.021  0.1931E+01  0.7219E+01
      0.007  0.1619E+01  0.7265E+01
      0.035  0.1491E+01  0.7307E+01
      0.063  0.1634E+01  0.7353E+01
      0.092  0.2164E+01  0.7414E+01
      0.120  0.3071E+01  0.7501E+01
      0.148  0.4122E+01  0.7617E+01
      0.176  0.4934E+01  0.7756E+01
      0.204  0.5212E+01  0.7903E+01
      0.232  0.4981E+01  0.8043E+01
      0.261  0.4602E+01  0.8173E+01
      0.289  0.4533E+01  0.8301E+01
      0.317  0.5010E+01  0.8442E+01
      0.345  0.5912E+01  0.8609E+01
      0.373  0.6919E+01  0.8804E+01
      0.402  0.7787E+01  0.9023E+01
      0.430  0.8497E+01  0.9263E+01
      0.458  0.9162E+01  0.9521E+01
      0.486  0.9781E+01  0.9797E+01
      0.514  0.1012E+02  0.1008E+02
      0.543  0.9848E+01  0.1036E+02
      0.571  0.8755E+01  0.1061E+02
      0.599  0.6984E+01  0.1080E+02
      0.627  0.4951E+01  0.1094E+02
      0.655  0.3139E+01  0.1103E+02
      0.683  0.1893E+01  0.1108E+02
      0.712  0.1369E+01  0.1112E+02
      0.740  0.1582E+01  0.1117E+02
      0.768  0.2459E+01  0.1124E+02
      0.796  0.3808E+01  0.1134E+02
      0.824  0.5279E+01  0.1149E+02
      0.853  0.6423E+01  0.1167E+02
      0.881  0.6874E+01  0.1187E+02
      0.909  0.6536E+01  0.1205E+02
      0.937  0.5639E+01  0.1221E+02
      0.965  0.4601E+01  0.1234E+02
      0.994  0.3804E+01  0.1245E+02
      1.022  0.3420E+01  0.1254E+02
      1.050  0.3378E+01  0.1264E+02
      1.078  0.3483E+01  0.1274E+02
      1.106  0.3573E+01  0.1284E+02
      1.135  0.3588E+01  0.1294E+02
      1.163  0.3536E+01  0.1304E+02
      1.191  0.3422E+01  0.1314E+02
      1.219  0.3227E+01  0.1323E+02
      1.247  0.2937E+01  0.1331E+02
      1.275  0.2558E+01  0.1338E+02
      1.304  0.2119E+01  0.1344E+02
      1.332  0.1683E+01  0.1349E+02
      1.360  0.1365E+01  0.1353E+02
      1.388  0.1342E+01  0.1357E+02
      1.416  0.1815E+01  0.1362E+02
      1.445  0.2920E+01  0.1370E+02
      1.473  0.4601E+01  0.1383E+02
      1.501  0.6534E+01  0.1401E+02
      1.529  0.8180E+01  0.1424E+02
      1.557  0.9000E+01  0.1450E+02
      1.586  0.8717E+01  0.1474E+02
      1.614  0.7449E+01  0.1495E+02
      1.642  0.5620E+01  0.1511E+02
      1.670  0.3743E+01  0.1522E+02
      1.698  0.2199E+01  0.1528E+02
      1.727  0.1147E+01  0.1531E+02
      1.755  0.5640E+00  0.1533E+02
      1.783  0.3516E+00  0.1534E+02
      1.811  0.4264E+00  0.1535E+02
      1.839  0.7429E+00  0.1537E+02
      1.867  0.1251E+01  0.1541E+02
      1.896  0.1837E+01  0.1546E+02
      1.924  0.2313E+01  0.1552E+02
      1.952  0.2491E+01  0.1559E+02
      1.980  0.2293E+01  0.1566E+02
      2.008  0.1804E+01  0.1571E+02
      2.037  0.1214E+01  0.1574E+02
      2.065  0.6983E+00  0.1576E+02
      2.093  0.3451E+00  0.1577E+02
      2.121  0.1521E+00  0.1578E+02
      2.149  0.7768E-01  0.1578E+02
      2.178  0.8806E-01  0.1578E+02
      2.206  0.1759E+00  0.1579E+02
      2.234  0.3502E+00  0.1580E+02
      2.262  0.6075E+00  0.1581E+02
      2.290  0.9026E+00  0.1584E+02
      2.319  0.1147E+01  0.1587E+02
      2.347  0.1245E+01  0.1591E+02
      2.375  0.1156E+01  0.1594E+02
      2.403  0.9177E+00  0.1596E+02
      2.431  0.6226E+00  0.1598E+02
      2.459  0.3610E+00  0.1599E+02
      2.488  0.1790E+00  0.1600E+02
      2.516  0.7584E-01  0.1600E+02
      2.544  0.2747E-01  0.1600E+02
      2.572  0.8504E-02  0.1600E+02
      2.600  0.2250E-02  0.1600E+02
      2.629  0.5089E-03  0.1600E+02
      2.657  0.9835E-04  0.1600E+02
      2.685  0.1625E-04  0.1600E+02
      2.713  0.2293E-05  0.1600E+02
      2.741  0.2766E-06  0.1600E+02
      2.770  0.2850E-07  0.1600E+02
      2.798  0.2510E-08  0.1600E+02
      2.826  0.1889E-09  0.1600E+02
      2.854  0.1214E-10  0.1600E+02
      2.882  0.6669E-12  0.1600E+02
      2.910  0.3063E-13  0.1600E+02
      2.939  0.1750E-14  0.1600E+02
      2.967  0.0000E+00  0.1600E+02
      2.995  0.0000E+00  0.1600E+02
      3.023  0.0000E+00  0.1600E+02
      3.051  0.0000E+00  0.1600E+02
      3.080  0.0000E+00  0.1600E+02
      3.108  0.0000E+00  0.1600E+02
      3.136  0.0000E+00  0.1600E+02
      3.164  0.0000E+00  0.1600E+02
      3.192  0.0000E+00  0.1600E+02
      3.221  0.0000E+00  0.1600E+02
      3.249  0.0000E+00  0.1600E+02
      3.277  0.0000E+00  0.1600E+02
      3.305  0.0000E+00  0.1600E+02
      3.333  0.0000E+00  0.1600E+02
