    4    4    1    1
  0.1099235E+03  0.5933265E-09  0.5933265E-09  0.2498004E-08  0.5000000E-15
  1.000000000000000E-004
  CAR 
 unknown system                          
      4      4      8
 
  0.0000000E+00  0.0000000E+00  0.0000000E+00  0.1111111E+00
    1       -4.123635   1.000000
    2       -1.802320   0.999578
    3       -0.026467   0.000000
    4        0.571932   0.000000
    5        1.160958   0.000000
    6        1.202609   0.000000
    7        1.288765   0.000000
    8        2.333345   0.000000
 
  0.3333333E+00 -0.1387779E-16  0.2220446E-15  0.4444444E+00
    1       -3.503370   1.000000
    2       -1.595276   0.658976
    3       -1.195695   0.000000
    4        0.181066   0.000000
    5        0.363772   0.000000
    6        0.514604   0.000000
    7        0.846655   0.000000
    8        1.522896   0.000000
 
  0.3333333E+00  0.3333333E+00  0.2220446E-15  0.2222222E+00
    1       -3.493120   1.000000
    2       -1.615734   0.757720
    3       -1.180535   0.000000
    4       -0.226588   0.000000
    5        0.445394   0.000000
    6        0.912432   0.000000
    7        1.061858   0.000000
    8        1.562428   0.000000
 
 -0.3333333E+00  0.3333333E+00  0.1219703E-15  0.2222222E+00
    1       -2.490989   1.000000
    2       -2.388924   1.000000
    3       -1.667869   0.924540
    4       -0.209528   0.000000
    5       -0.166670   0.000000
    6        0.555200   0.000000
    7        1.600016   0.000000
    8        1.937155   0.000000
