 running on  128 total cores
 distrk:  each k-point on  128 cores,    1 groups
 distr:  one band on   16 cores,    8 groups
 vasp.6.2.1 16May21 (build Dec 23 2021 00:35:04) complex                        
  
 POSCAR found type information on POSCAR Na
 POSCAR found :  1 types and       4 ions
 scaLAPACK will be used
 -----------------------------------------------------------------------------
|                                                                             |
|               ----> ADVICE to this user running VASP <----                  |
|                                                                             |
|     You have a (more or less) 'small supercell' and for smaller cells       |
|     it is recommended to use the reciprocal-space projection scheme!        |
|     The real-space optimization is not efficient for small cells and it     |
|     is also less accurate ...                                               |
|     Therefore, set LREAL=.FALSE. in the INCAR file.                         |
|                                                                             |
 -----------------------------------------------------------------------------

 LDA part: xc-table for Pade appr. of Perdew
 -----------------------------------------------------------------------------
|                                                                             |
|           W    W    AA    RRRRR   N    N  II  N    N   GGGG   !!!           |
|           W    W   A  A   R    R  NN   N  II  NN   N  G    G  !!!           |
|           W    W  A    A  R    R  N N  N  II  N N  N  G       !!!           |
|           W WW W  AAAAAA  RRRRR   N  N N  II  N  N N  G  GGG   !            |
|           WW  WW  A    A  R   R   N   NN  II  N   NN  G    G                |
|           W    W  A    A  R    R  N    N  II  N    N   GGGG   !!!           |
|                                                                             |
|     The distance between some ions is very small. Please check the          |
|     nearest-neighbor list in the OUTCAR file.                               |
|     I HOPE YOU KNOW WHAT YOU ARE DOING!                                     |
|                                                                             |
 -----------------------------------------------------------------------------

 -----------------------------------------------------------------------------
|                                                                             |
|           W    W    AA    RRRRR   N    N  II  N    N   GGGG   !!!           |
|           W    W   A  A   R    R  NN   N  II  NN   N  G    G  !!!           |
|           W    W  A    A  R    R  N N  N  II  N N  N  G       !!!           |
|           W WW W  AAAAAA  RRRRR   N  N N  II  N  N N  G  GGG   !            |
|           WW  WW  A    A  R   R   N   NN  II  N   NN  G    G                |
|           W    W  A    A  R    R  N    N  II  N    N   GGGG   !!!           |
|                                                                             |
|     The requested file  could not be found or opened for reading            |
|     k-point information. Automatic k-point generation is used as a          |
|     fallback, which may lead to unwanted results.                           |
|                                                                             |
 -----------------------------------------------------------------------------

 POSCAR, INCAR and KPOINTS ok, starting setup
 FFT: planning ...
 WAVECAR not read
 entering main loop
       N       E                     dE             d eps       ncg     rms          rms(c)
DAV:   1     0.355608703059E+01    0.35561E+01   -0.72757E+02    64   0.215E+02
DAV:   2    -0.164070122453E+01   -0.51968E+01   -0.47801E+01    88   0.242E+01
DAV:   3    -0.180848633613E+01   -0.16779E+00   -0.16677E+00    80   0.658E+00
DAV:   4    -0.181522558434E+01   -0.67392E-02   -0.67384E-02   112   0.117E+00
DAV:   5    -0.181526240227E+01   -0.36818E-04   -0.36818E-04   120   0.852E-02    0.128E+00
RMM:   6    -0.162323883382E+01    0.19202E+00   -0.37125E-02    67   0.573E-01    0.825E-01
RMM:   7    -0.146331005555E+01    0.15993E+00   -0.22799E-01    95   0.128E+00    0.305E-01
RMM:   8    -0.149331173887E+01   -0.30002E-01   -0.38998E-02    72   0.552E-01    0.250E-01
RMM:   9    -0.147625331841E+01    0.17058E-01   -0.89191E-03    76   0.341E-01    0.148E-01
RMM:  10    -0.146971150470E+01    0.65418E-02   -0.96086E-03    77   0.287E-01    0.402E-02
RMM:  11    -0.147105570412E+01   -0.13442E-02   -0.44007E-03    70   0.211E-01    0.318E-02
RMM:  12    -0.147354161986E+01   -0.24859E-02   -0.11556E-03    78   0.137E-01    0.167E-02
RMM:  13    -0.147369629312E+01   -0.15467E-03   -0.31211E-04    83   0.808E-02    0.713E-03
RMM:  14    -0.147398382566E+01   -0.28753E-03   -0.81244E-05    84   0.444E-02    0.372E-03
RMM:  15    -0.147399830198E+01   -0.14476E-04   -0.33365E-05    84   0.274E-02    0.148E-03
RMM:  16    -0.147399962798E+01   -0.13260E-05   -0.74369E-06    91   0.112E-02    0.180E-03
RMM:  17    -0.147400013984E+01   -0.51187E-06   -0.71794E-07    87   0.411E-03    0.235E-03
RMM:  18    -0.147399998623E+01    0.15361E-06   -0.41278E-07    77   0.265E-03    0.873E-04
RMM:  19    -0.147400104689E+01   -0.10607E-05   -0.32774E-07    84   0.283E-03    0.390E-03
RMM:  20    -0.147400120821E+01   -0.16132E-06   -0.10157E-07    78   0.191E-03    0.172E-03
RMM:  21    -0.147400125543E+01   -0.47225E-07   -0.58489E-08    87   0.121E-03    0.118E-03
RMM:  22    -0.147400127001E+01   -0.14583E-07   -0.12378E-08    70   0.602E-04    0.770E-04
RMM:  23    -0.147400128084E+01   -0.10830E-07   -0.76040E-09    68   0.439E-04    0.310E-04
RMM:  24    -0.147400128855E+01   -0.77070E-08   -0.29884E-09    52   0.298E-04
   1 F= -.14740013E+01 E0= -.14553161E+01  d E =-.373703E-01
