<?xml version="1.0" encoding="ISO-8859-1"?>
<modeling>
 <generator>
  <i name="program" type="string">vasp </i>
  <i name="version" type="string">6.2.1  </i>
  <i name="subversion" type="string">16May21 (build Dec 23 2021 00:35:04) complex                          parallel </i>
  <i name="platform" type="string">LinuxIFC </i>
  <i name="date" type="string">2023 03 08 </i>
  <i name="time" type="string">11:56:11 </i>
 </generator>
 <incar>
  <i type="string" name="PREC">Normal</i>
  <i type="string" name="ALGO">Fast</i>
  <i type="int" name="ISPIN">     0</i>
  <i type="int" name="NELM">   150</i>
  <i type="int" name="IBRION">    -1</i>
  <i name="EDIFF">      0.00000001</i>
  <i name="EDIFFG">     -0.01000000</i>
  <i type="int" name="NSW">     0</i>
  <i type="int" name="ISIF">     3</i>
  <i name="ENCUT">    400.00000000</i>
  <i type="string" name="LREAL">AUTO</i>
  <i type="int" name="ISMEAR">     0</i>
  <i name="SIGMA">      0.10000000</i>
  <i name="KSPACING">      0.50000000</i>
  <i type="logical" name="KGAMMA"> T  </i>
  <i type="int" name="NWRITE">     1</i>
  <i type="int" name="LMAXMIX">     6</i>
  <i type="logical" name="LWAVE"> F  </i>
  <i type="logical" name="LCHARG"> F  </i>
  <i type="logical" name="LASPH"> T  </i>
  <i type="string" name="GGA">PE</i>
  <i type="logical" name="LDIPOL"> T  </i>
  <i type="int" name="IDIPOL">     3</i>
  <v name="DIPOL">      0.25000000      0.25000000      0.50000000</v>
 </incar>
 <primitive_cell>
  <structure name="primitive_cell" >
   <crystal>
    <varray name="basis" >
     <v>       5.73109405       1.53564202       0.00000000 </v>
     <v>       1.53564202       5.73109405       0.00000000 </v>
     <v>     -14.42223299     -14.42223299      14.42223299 </v>
    </varray>
    <i name="volume">    439.69411521 </i>
    <varray name="rec_basis" >
     <v>       0.18798335      -0.05036999       0.13761336 </v>
     <v>      -0.05036999       0.18798335       0.13761336 </v>
     <v>       0.00000000       0.00000000       0.06933739 </v>
    </varray>
   </crystal>
   <varray name="positions" >
    <v>       0.50000095       0.50000095       0.41602434 </v>
    <v>       0.00000010       0.00000010       0.50000000 </v>
    <v>       0.50000095       0.50000095       0.50000000 </v>
    <v>       0.00000010       0.00000010       0.58397566 </v>
   </varray>
  </structure>
  <varray name="primitive_index" >
   <v type="int" >        1 </v>
   <v type="int" >        2 </v>
   <v type="int" >        3 </v>
   <v type="int" >        4 </v>
  </varray>
 </primitive_cell>
 <kpoints>
  <generation param="Gamma">
   <v type="int" name="divisions">       3        3        1 </v>
   <v name="usershift">      0.00000000       0.00000000       0.00000000 </v>
   <v name="genvec1">      0.33333333      -0.00000000       0.00000000 </v>
   <v name="genvec2">      0.00000000       0.33333333       0.00000000 </v>
   <v name="genvec3">      0.00000000       0.00000000       1.00000000 </v>
   <v name="shift">      0.00000000       0.00000000       0.00000000 </v>
  </generation>
  <varray name="kpointlist" >
   <v>       0.00000000       0.00000000       0.00000000 </v>
   <v>       0.33333333      -0.00000000       0.00000000 </v>
   <v>       0.33333333       0.33333333       0.00000000 </v>
   <v>      -0.33333333       0.33333333       0.00000000 </v>
  </varray>
  <varray name="weights" >
   <v>       0.11111111 </v>
   <v>       0.44444444 </v>
   <v>       0.22222222 </v>
   <v>       0.22222222 </v>
  </varray>
 </kpoints>
 <parameters>
  <separator name="general" >
   <i type="string" name="SYSTEM">unknown system</i>
   <i type="logical" name="LCOMPAT"> F  </i>
  </separator>
  <separator name="electronic" >
   <i type="string" name="PREC">normal</i>
   <i name="ENMAX">    400.00000000</i>
   <i name="ENAUG">    250.69500000</i>
   <i name="EDIFF">      0.00000001</i>
   <i type="int" name="IALGO">    68</i>
   <i type="int" name="IWAVPR">    10</i>
   <i type="int" name="NBANDS">     8</i>
   <i type="int" name="NBANDSLOW">    -1</i>
   <i type="int" name="NBANDSHIGH">    -1</i>
   <i name="NELECT">      4.00000000</i>
   <i type="int" name="TURBO">     0</i>
   <i type="int" name="IRESTART">     0</i>
   <i type="int" name="NREBOOT">     0</i>
   <i type="int" name="NMIN">     0</i>
   <i name="EREF">      0.00000000</i>
   <separator name="electronic smearing" >
    <i type="int" name="ISMEAR">     0</i>
    <i name="SIGMA">      0.10000000</i>
    <i name="KSPACING">      0.50000000</i>
    <i type="logical" name="KGAMMA"> T  </i>
    <i type="logical" name="KBLOWUP"> T  </i>
   </separator>
   <separator name="electronic projectors" >
    <i type="logical" name="LREAL"> T  </i>
    <v name="ROPT">     -0.00050000</v>
    <i type="int" name="LMAXPAW">  -100</i>
    <i type="int" name="LMAXMIX">     6</i>
    <i type="logical" name="NLSPLINE"> F  </i>
   </separator>
   <separator name="electronic startup" >
    <i type="int" name="ISTART">     0</i>
    <i type="int" name="ICHARG">     2</i>
    <i type="int" name="INIWAV">     1</i>
   </separator>
   <separator name="electronic spin" >
    <i type="int" name="ISPIN">     1</i>
    <i type="logical" name="LNONCOLLINEAR"> F  </i>
    <v name="MAGMOM">      1.00000000      1.00000000      1.00000000      1.00000000</v>
    <i name="NUPDOWN">     -1.00000000</i>
    <i type="logical" name="LSORBIT"> F  </i>
    <v name="SAXIS">      0.00000000      0.00000000      1.00000000</v>
    <i type="logical" name="LSPIRAL"> F  </i>
    <v name="QSPIRAL">      0.00000000      0.00000000      0.00000000</v>
    <i type="logical" name="LZEROZ"> F  </i>
   </separator>
   <separator name="electronic exchange-correlation" >
    <i type="logical" name="LASPH"> T  </i>
    <i type="logical" name="LMETAGGA"> F  </i>
   </separator>
   <separator name="electronic convergence" >
    <i type="int" name="NELM">   150</i>
    <i type="int" name="NELMDL">    -5</i>
    <i type="int" name="NELMIN">     2</i>
    <i name="ENINI">    400.00000000</i>
    <separator name="electronic convergence detail" >
     <i type="logical" name="LDIAG"> T  </i>
     <i type="logical" name="LSUBROT"> F  </i>
     <i name="WEIMIN">      0.00000000</i>
     <i name="EBREAK">      0.00000000</i>
     <i name="DEPER">      0.30000000</i>
     <i type="int" name="NRMM">     4</i>
     <i name="TIME">      0.40000000</i>
    </separator>
   </separator>
   <separator name="electronic mixer" >
    <i name="AMIX">      0.40000000</i>
    <i name="BMIX">      1.00000000</i>
    <i name="AMIN">      0.10000000</i>
    <i name="AMIX_MAG">      1.60000000</i>
    <i name="BMIX_MAG">      1.00000000</i>
    <separator name="electronic mixer details" >
     <i type="int" name="IMIX">     4</i>
     <i type="logical" name="MIXFIRST"> F  </i>
     <i type="int" name="MAXMIX">   -45</i>
     <i name="WC">    100.00000000</i>
     <i type="int" name="INIMIX">     1</i>
     <i type="int" name="MIXPRE">     1</i>
     <i type="int" name="MREMOVE">     5</i>
    </separator>
   </separator>
   <separator name="electronic dipolcorrection" >
    <i type="logical" name="LDIPOL"> T  </i>
    <i type="logical" name="LMONO"> F  </i>
    <i type="int" name="IDIPOL">     3</i>
    <i name="EPSILON">      1.00000000</i>
    <v name="DIPOL">      0.25000000      0.25000000      0.50000000</v>
    <i name="EFIELD">      0.00000000</i>
   </separator>
  </separator>
  <separator name="grids" >
   <i type="int" name="NGX">    30</i>
   <i type="int" name="NGY">    30</i>
   <i type="int" name="NGZ">   126</i>
   <i type="int" name="NGXF">    60</i>
   <i type="int" name="NGYF">    60</i>
   <i type="int" name="NGZF">   252</i>
   <i type="logical" name="ADDGRID"> F  </i>
  </separator>
  <separator name="ionic" >
   <i type="int" name="NSW">     0</i>
   <i type="int" name="IBRION">    -1</i>
   <i type="int" name="MDALGO">     0</i>
   <i type="int" name="ISIF">     3</i>
   <i name="PSTRESS">      0.00000000</i>
   <i name="EDIFFG">     -0.01000000</i>
   <i type="int" name="NFREE">     0</i>
   <i name="POTIM">      0.50000000</i>
   <i name="SMASS">     -3.00000000</i>
   <i name="SCALEE">      1.00000000</i>
  </separator>
  <separator name="ionic md" >
   <i name="TEBEG">      0.00010000</i>
   <i name="TEEND">      0.00010000</i>
   <i type="int" name="NBLOCK">     1</i>
   <i type="int" name="KBLOCK">     1</i>
   <i type="int" name="NPACO">   256</i>
   <i name="APACO">     16.00000000</i>
  </separator>
  <separator name="symmetry" >
   <i type="int" name="ISYM">     2</i>
   <i name="SYMPREC">      0.00001000</i>
  </separator>
  <separator name="dos" >
   <i type="int" name="LORBIT">     0</i>
   <v name="RWIGS">     -1.00000000</v>
   <i type="int" name="NEDOS">   301</i>
   <i name="EMIN">     10.00000000</i>
   <i name="EMAX">    -10.00000000</i>
   <i name="EFERMI">      0.00000000</i>
  </separator>
  <separator name="writing" >
   <i type="int" name="NWRITE">     1</i>
   <i type="logical" name="LWAVE"> F  </i>
   <i type="logical" name="LDOWNSAMPLE"> F  </i>
   <i type="logical" name="LCHARG"> F  </i>
   <i type="logical" name="LPARD"> F  </i>
   <i type="logical" name="LVTOT"> F  </i>
   <i type="logical" name="LVHAR"> F  </i>
   <i type="logical" name="LELF"> F  </i>
   <i type="logical" name="LOPTICS"> F  </i>
   <v name="STM">      0.00000000      0.00000000      0.00000000      0.00000000      0.00000000      0.00000000      0.00000000</v>
  </separator>
  <separator name="performance" >
   <i type="int" name="NPAR">     8</i>
   <i type="int" name="NSIM">     4</i>
   <i type="int" name="NBLK">    -1</i>
   <i type="logical" name="LPLANE"> T  </i>
   <i type="logical" name="LSCALAPACK"> T  </i>
   <i type="logical" name="LSCAAWARE"> F  </i>
   <i type="logical" name="LSCALU"> F  </i>
   <i type="logical" name="LASYNC"> F  </i>
   <i type="logical" name="LORBITALREAL"> F  </i>
  </separator>
  <separator name="miscellaneous" >
   <i type="int" name="IDIOT">     3</i>
   <i type="int" name="PHON_NSTRUCT">    -1</i>
   <i type="logical" name="LMUSIC"> F  </i>
   <v name="POMASS">     22.99000000</v>
   <v name="DARWINR">      0.00000000</v>
   <v name="DARWINV">      1.00000000</v>
   <i type="logical" name="LCORR"> T  </i>
  </separator>
  <i type="logical" name="GGA_COMPAT"> T  </i>
  <i type="logical" name="LBERRY"> F  </i>
  <i type="int" name="ICORELEVEL">     0</i>
  <i type="logical" name="LDAU"> F  </i>
  <i type="int" name="I_CONSTRAINED_M">     0</i>
  <separator name="electronic exchange-correlation" >
   <i type="string" name="GGA">PE</i>
   <i type="int" name="VOSKOWN">     0</i>
   <i type="logical" name="LHFCALC"> F  </i>
   <i type="string" name="PRECFOCK"></i>
   <i type="logical" name="LSYMGRAD"> F  </i>
   <i type="logical" name="LHFONE"> F  </i>
   <i type="logical" name="LRHFCALC"> F  </i>
   <i type="logical" name="LTHOMAS"> F  </i>
   <i type="logical" name="LMODELHF"> F  </i>
   <i type="logical" name="LFOCKACE"> F  </i>
   <i name="ENCUT4O">     -1.00000000</i>
   <i type="int" name="EXXOEP">     0</i>
   <i type="int" name="FOURORBIT">     0</i>
   <i name="AEXX">      0.00000000</i>
   <i name="HFALPHA">      0.00000000</i>
   <i name="MCALPHA">      0.00000000</i>
   <i name="ALDAX">      1.00000000</i>
   <i name="AGGAX">      1.00000000</i>
   <i name="ALDAC">      1.00000000</i>
   <i name="AGGAC">      1.00000000</i>
   <i type="int" name="NKREDX">     1</i>
   <i type="int" name="NKREDY">     1</i>
   <i type="int" name="NKREDZ">     1</i>
   <i type="logical" name="SHIFTRED"> F  </i>
   <i type="logical" name="ODDONLY"> F  </i>
   <i type="logical" name="EVENONLY"> F  </i>
   <i type="int" name="LMAXFOCK">     0</i>
   <i type="int" name="NMAXFOCKAE">     0</i>
   <i type="logical" name="LFOCKAEDFT"> F  </i>
   <i name="HFSCREEN">      0.00000000</i>
   <i name="HFSCREENC">      0.00000000</i>
   <i type="int" name="NBANDSGWLOW">     0</i>
  </separator>
  <separator name="vdW DFT" >
   <i type="logical" name="LUSE_VDW"> F  </i>
   <i name="Zab_VDW">     -0.84910000</i>
   <i name="PARAM1">      0.12340000</i>
   <i name="PARAM2">      1.00000000</i>
   <i name="PARAM3">      0.00000000</i>
  </separator>
  <separator name="model GW" >
   <i type="int" name="MODEL_GW">     0</i>
   <i name="MODEL_EPS0">     65.95411728</i>
   <i name="MODEL_ALPHA">      1.00000000</i>
  </separator>
  <separator name="linear response parameters" >
   <i type="logical" name="LEPSILON"> F  </i>
   <i type="logical" name="LRPA"> F  </i>
   <i type="logical" name="LNABLA"> F  </i>
   <i type="logical" name="LVEL"> F  </i>
   <i type="int" name="KINTER">     0</i>
   <i name="CSHIFT">      0.10000000</i>
   <i name="OMEGAMAX">     -1.00000000</i>
   <i name="DEG_THRESHOLD">      0.00200000</i>
   <i name="RTIME">     -0.10000000</i>
   <i name="WPLASMAI">      0.00000000</i>
   <v name="DFIELD">      0.00000000      0.00000000      0.00000000</v>
   <v name="WPLASMA">      0.00000000      0.00000000      0.00000000      0.00000000      0.00000000      0.00000000      0.00000000      0.00000000      0.00000000</v>
  </separator>
  <separator name="orbital magnetization" >
   <i type="logical" name="NUCIND"> F  </i>
   <v name="MAGPOS">      0.00000000      0.00000000      0.00000000</v>
   <i type="logical" name="LNICSALL"> T  </i>
   <i type="logical" name="ORBITALMAG"> F  </i>
   <i type="logical" name="LMAGBLOCH"> F  </i>
   <i type="logical" name="LCHIMAG"> F  </i>
   <i type="logical" name="LGAUGE"> T  </i>
   <i type="int" name="MAGATOM">     0</i>
   <v name="MAGDIPOL">      0.00000000      0.00000000      0.00000000</v>
   <v name="AVECCONST">      0.00000000      0.00000000      0.00000000</v>
  </separator>
  <separator name="response functions" >
   <i type="logical" name="LFINITE_TEMPERATURE"> F  </i>
   <i type="logical" name="LADDER"> F  </i>
   <i type="logical" name="LRPAFORCE"> F  </i>
   <i type="logical" name="LFXC"> F  </i>
   <i type="logical" name="LHARTREE"> T  </i>
   <i type="int" name="IBSE">     0</i>
   <v type="int" name="KPOINT">    -1     0     0     0</v>
   <i type="logical" name="LTCTC"> F  </i>
   <i type="logical" name="LTCTE"> F  </i>
   <i type="logical" name="LTETE"> F  </i>
   <i type="logical" name="LTRIPLET"> F  </i>
   <i type="logical" name="LFXCEPS"> F  </i>
   <i type="logical" name="LFXHEG"> F  </i>
   <i type="int" name="NATURALO">     2</i>
   <i type="logical" name="LHOLEGF"> F  </i>
   <i type="logical" name="L2ORDER"> F  </i>
   <i type="logical" name="LDMP1"> F  </i>
   <i type="logical" name="LMP2LT"> F  </i>
   <i type="logical" name="LSMP2LT"> F  </i>
   <i type="logical" name="LGWLF"> F  </i>
   <i name="ENCUTGW">     -2.00000000</i>
   <i name="ENCUTGWSOFT">     -2.00000000</i>
   <i name="ENCUTLF">     -1.00000000</i>
   <i type="logical" name="LESF_SPLINES"> F  </i>
   <i type="int" name="LMAXMP2">    -1</i>
   <i name="SCISSOR">      0.00000000</i>
   <i type="int" name="NOMEGA">     0</i>
   <i type="int" name="NOMEGAR">     0</i>
   <i type="int" name="NBANDSGW">    -1</i>
   <i type="int" name="NBANDSO">    -1</i>
   <i type="int" name="NBANDSV">    -1</i>
   <i type="int" name="NELM">   150</i>
   <i type="int" name="NELMHF">     1</i>
   <i type="int" name="DIM">     3</i>
   <i type="int" name="IESPILON">     4</i>
   <i type="int" name="ANTIRES">     0</i>
   <i name="OMEGAMAX">    -30.00000000</i>
   <i name="OMEGAMIN">    -30.00000000</i>
   <i name="OMEGATL">   -200.00000000</i>
   <i type="int" name="OMEGAGRID">     0</i>
   <i name="CSHIFT">     -0.10000000</i>
   <i type="logical" name="LSELFENERGY"> F  </i>
   <i type="logical" name="LSPECTRAL"> F  </i>
   <i type="logical" name="LSPECTRALGW"> F  </i>
   <i type="logical" name="LSINGLES"> F  </i>
   <i type="logical" name="LFERMIGW"> F  </i>
   <i type="logical" name="ODDONLYGW"> F  </i>
   <i type="logical" name="EVENONLYGW"> F  </i>
   <i type="int" name="NKREDLFX">     1</i>
   <i type="int" name="NKREDLFY">     1</i>
   <i type="int" name="NKREDLFZ">     1</i>
   <i type="int" name="MAXMEM">  2800</i>
   <i type="int" name="TELESCOPE">     0</i>
   <i type="int" name="NTAUPAR">    -1</i>
   <i type="int" name="NOMEGAPAR">    -1</i>
   <i name="DAMP_NEWTON">      0.80000001</i>
   <i name="LAMBDA">      1.00000000</i>
  </separator>
  <separator name="External order field" >
   <i name="OFIELD_KAPPA">      0.00000000</i>
   <v name="OFIELD_K">      0.00000000      0.00000000      0.00000000</v>
   <i name="OFIELD_Q6_NEAR">      0.00000000</i>
   <i name="OFIELD_Q6_FAR">      0.00000000</i>
   <i name="OFIELD_A">      0.00000000</i>
  </separator>
 </parameters>
 <atominfo>
  <atoms>       4 </atoms>
  <types>       1 </types>
  <array name="atoms" >
   <dimension dim="1">ion</dimension>
   <field type="string">element</field>
   <field type="int">atomtype</field>
   <set>
    <rc><c>Na</c><c>   1</c></rc>
    <rc><c>Na</c><c>   1</c></rc>
    <rc><c>Na</c><c>   1</c></rc>
    <rc><c>Na</c><c>   1</c></rc>
   </set>
  </array>
  <array name="atomtypes" >
   <dimension dim="1">type</dimension>
   <field type="int">atomspertype</field>
   <field type="string">element</field>
   <field>mass</field>
   <field>valence</field>
   <field type="string">pseudopotential</field>
   <set>
    <rc><c>   4</c><c>Na</c><c>     22.99000000</c><c>      1.00000000</c><c>  PAW_PBE Na 08Apr2002                  </c></rc>
   </set>
  </array>
 </atominfo>
 <structure name="initialpos" >
  <crystal>
   <varray name="basis" >
    <v>       5.73109405       1.53564202       0.00000000 </v>
    <v>       1.53564202       5.73109405       0.00000000 </v>
    <v>     -14.42223299     -14.42223299      14.42223299 </v>
   </varray>
   <i name="volume">    439.69411521 </i>
   <varray name="rec_basis" >
    <v>       0.18798335      -0.05036999       0.13761336 </v>
    <v>      -0.05036999       0.18798335       0.13761336 </v>
    <v>       0.00000000       0.00000000       0.06933739 </v>
   </varray>
  </crystal>
  <varray name="positions" >
   <v>       0.50000095       0.50000095       0.41602434 </v>
   <v>       0.00000010       0.00000010       0.50000000 </v>
   <v>       0.50000095       0.50000095       0.50000000 </v>
   <v>       0.00000010       0.00000010       0.58397566 </v>
  </varray>
 </structure>
 <calculation>
  <scstep>
   <time name="dav">    0.03    0.03</time>
   <time name="total">    0.08    0.09</time>
   <dipole>
    <v name="dipole">     -0.00000000      -0.00000000       0.00000000 </v>
    <i name="Tr[quadrupol]">    -10.25624324 </i>
    <i name="Echarged">      0.00000000 </i>
    <i name="Edipol_quadrupol">      0.00000000 </i>
    <i name="Eion">      0.00000000 </i>
   </dipole>
   <energy>
    <i name="alphaZ">     -0.66650138 </i>
    <i name="ewald">     12.04145734 </i>
    <i name="hartreedc">    -22.72622476 </i>
    <i name="XCdc">   -146.79858552 </i>
    <i name="pawpsdc">    159.50458433 </i>
    <i name="pawaedc">     -9.47061014 </i>
    <i name="eentropy">     -0.03103320 </i>
    <i name="bandstr">     -8.92919745 </i>
    <i name="atom">     20.63219781 </i>
    <i name="e_fr_energy">      3.55608703 </i>
    <i name="e_wo_entrp">      3.58712023 </i>
    <i name="e_0_energy">      3.57160363 </i>
   </energy>
  </scstep>
  <scstep>
   <time name="dav">    0.03    0.03</time>
   <time name="total">    0.03    0.03</time>
   <dipole>
    <v name="dipole">     -0.00000000      -0.00000000       0.00000000 </v>
    <i name="Tr[quadrupol]">    -10.25624324 </i>
    <i name="Echarged">      0.00000000 </i>
    <i name="Edipol_quadrupol">      0.00000000 </i>
    <i name="Eion">      0.00000000 </i>
   </dipole>
   <energy>
    <i name="e_fr_energy">     -1.64070122 </i>
    <i name="e_wo_entrp">     -1.61669033 </i>
    <i name="e_0_energy">     -1.62869578 </i>
   </energy>
  </scstep>
  <scstep>
   <time name="dav">    0.02    0.02</time>
   <time name="total">    0.02    0.02</time>
   <dipole>
    <v name="dipole">     -0.00000000      -0.00000000       0.00000000 </v>
    <i name="Tr[quadrupol]">    -10.25624324 </i>
    <i name="Echarged">      0.00000000 </i>
    <i name="Edipol_quadrupol">      0.00000000 </i>
    <i name="Eion">      0.00000000 </i>
   </dipole>
   <energy>
    <i name="e_fr_energy">     -1.80848634 </i>
    <i name="e_wo_entrp">     -1.78444668 </i>
    <i name="e_0_energy">     -1.79646651 </i>
   </energy>
  </scstep>
  <scstep>
   <time name="dav">    0.02    0.02</time>
   <time name="total">    0.02    0.02</time>
   <dipole>
    <v name="dipole">     -0.00000000      -0.00000000       0.00000000 </v>
    <i name="Tr[quadrupol]">    -10.25624324 </i>
    <i name="Echarged">      0.00000000 </i>
    <i name="Edipol_quadrupol">      0.00000000 </i>
    <i name="Eion">      0.00000000 </i>
   </dipole>
   <energy>
    <i name="e_fr_energy">     -1.81522558 </i>
    <i name="e_wo_entrp">     -1.79121645 </i>
    <i name="e_0_energy">     -1.80322102 </i>
   </energy>
  </scstep>
  <scstep>
   <time name="dav">    0.02    0.02</time>
   <time name="total">    0.04    0.04</time>
   <dipole>
    <v name="dipole">     -0.00000000      -0.00000000       0.00000000 </v>
    <i name="Tr[quadrupol]">    -10.25624324 </i>
    <i name="Echarged">      0.00000000 </i>
    <i name="Edipol_quadrupol">      0.00000000 </i>
    <i name="Eion">      0.00000000 </i>
   </dipole>
   <energy>
    <i name="e_fr_energy">     -1.81526240 </i>
    <i name="e_wo_entrp">     -1.79125399 </i>
    <i name="e_0_energy">     -1.80325819 </i>
   </energy>
  </scstep>
  <scstep>
   <time name="diag">    0.04    0.04</time>
   <time name="diis">    0.01    0.01</time>
   <time name="orth">    0.00    0.00</time>
   <time name="total">    0.10    0.11</time>
   <dipole>
    <v name="dipole">     -0.00000000      -0.00000000       0.00000000 </v>
    <i name="Tr[quadrupol]">    -11.33745816 </i>
    <i name="Echarged">      0.00000000 </i>
    <i name="Edipol_quadrupol">      0.00000000 </i>
    <i name="Eion">      0.00000000 </i>
   </dipole>
   <energy>
    <i name="e_fr_energy">     -1.62323883 </i>
    <i name="e_wo_entrp">     -1.59124614 </i>
    <i name="e_0_energy">     -1.60724249 </i>
   </energy>
  </scstep>
  <scstep>
   <time name="diag">    0.23    0.29</time>
   <time name="diis">    0.01    0.01</time>
   <time name="orth">    0.00    0.00</time>
   <time name="total">    0.30    0.36</time>
   <dipole>
    <v name="dipole">     -0.00000000      -0.00000000       0.00000000 </v>
    <i name="Tr[quadrupol]">    -14.07959312 </i>
    <i name="Echarged">      0.00000000 </i>
    <i name="Edipol_quadrupol">      0.00000000 </i>
    <i name="Eion">      0.00000000 </i>
   </dipole>
   <energy>
    <i name="e_fr_energy">     -1.46331006 </i>
    <i name="e_wo_entrp">     -1.42562417 </i>
    <i name="e_0_energy">     -1.44446711 </i>
   </energy>
  </scstep>
  <scstep>
   <time name="diag">    0.02    0.02</time>
   <time name="diis">    0.01    0.01</time>
   <time name="orth">    0.00    0.00</time>
   <time name="total">    0.08    0.08</time>
   <dipole>
    <v name="dipole">     -0.00000000      -0.00000000       0.00000000 </v>
    <i name="Tr[quadrupol]">    -14.26839472 </i>
    <i name="Echarged">      0.00000000 </i>
    <i name="Edipol_quadrupol">      0.00000000 </i>
    <i name="Eion">      0.00000000 </i>
   </dipole>
   <energy>
    <i name="e_fr_energy">     -1.49331174 </i>
    <i name="e_wo_entrp">     -1.45517455 </i>
    <i name="e_0_energy">     -1.47424314 </i>
   </energy>
  </scstep>
  <scstep>
   <time name="diag">    0.02    0.02</time>
   <time name="diis">    0.01    0.01</time>
   <time name="orth">    0.00    0.00</time>
   <time name="total">    0.09    0.09</time>
   <dipole>
    <v name="dipole">     -0.00000000      -0.00000000       0.00000000 </v>
    <i name="Tr[quadrupol]">    -15.51213318 </i>
    <i name="Echarged">      0.00000000 </i>
    <i name="Edipol_quadrupol">      0.00000000 </i>
    <i name="Eion">      0.00000000 </i>
   </dipole>
   <energy>
    <i name="e_fr_energy">     -1.47625332 </i>
    <i name="e_wo_entrp">     -1.43881137 </i>
    <i name="e_0_energy">     -1.45753234 </i>
   </energy>
  </scstep>
  <scstep>
   <time name="diag">    0.02    0.02</time>
   <time name="diis">    0.01    0.01</time>
   <time name="orth">    0.00    0.00</time>
   <time name="total">    0.08    0.09</time>
   <dipole>
    <v name="dipole">     -0.00000000      -0.00000000       0.00000000 </v>
    <i name="Tr[quadrupol]">    -16.62671868 </i>
    <i name="Echarged">      0.00000000 </i>
    <i name="Edipol_quadrupol">      0.00000000 </i>
    <i name="Eion">      0.00000000 </i>
   </dipole>
   <energy>
    <i name="e_fr_energy">     -1.46971150 </i>
    <i name="e_wo_entrp">     -1.43232643 </i>
    <i name="e_0_energy">     -1.45101896 </i>
   </energy>
  </scstep>
  <scstep>
   <time name="diag">    0.02    0.02</time>
   <time name="diis">    0.00    0.00</time>
   <time name="orth">    0.00    0.00</time>
   <time name="total">    0.08    0.08</time>
   <dipole>
    <v name="dipole">     -0.00000000      -0.00000000       0.00000000 </v>
    <i name="Tr[quadrupol]">    -18.18228607 </i>
    <i name="Echarged">      0.00000000 </i>
    <i name="Edipol_quadrupol">      0.00000000 </i>
    <i name="Eion">      0.00000000 </i>
   </dipole>
   <energy>
    <i name="e_fr_energy">     -1.47105570 </i>
    <i name="e_wo_entrp">     -1.43367505 </i>
    <i name="e_0_energy">     -1.45236538 </i>
   </energy>
  </scstep>
  <scstep>
   <time name="diag">    0.02    0.02</time>
   <time name="diis">    0.01    0.01</time>
   <time name="orth">    0.00    0.00</time>
   <time name="total">    0.08    0.09</time>
   <dipole>
    <v name="dipole">     -0.00000000      -0.00000000       0.00000000 </v>
    <i name="Tr[quadrupol]">    -18.05525850 </i>
    <i name="Echarged">      0.00000000 </i>
    <i name="Edipol_quadrupol">      0.00000000 </i>
    <i name="Eion">      0.00000000 </i>
   </dipole>
   <energy>
    <i name="e_fr_energy">     -1.47354162 </i>
    <i name="e_wo_entrp">     -1.43618691 </i>
    <i name="e_0_energy">     -1.45486426 </i>
   </energy>
  </scstep>
  <scstep>
   <time name="diag">    0.02    0.02</time>
   <time name="diis">    0.01    0.01</time>
   <time name="orth">    0.00    0.00</time>
   <time name="total">    0.09    0.09</time>
   <dipole>
    <v name="dipole">     -0.00000000      -0.00000000       0.00000000 </v>
    <i name="Tr[quadrupol]">    -18.47327110 </i>
    <i name="Echarged">      0.00000000 </i>
    <i name="Edipol_quadrupol">      0.00000000 </i>
    <i name="Eion">      0.00000000 </i>
   </dipole>
   <energy>
    <i name="e_fr_energy">     -1.47369629 </i>
    <i name="e_wo_entrp">     -1.43632607 </i>
    <i name="e_0_energy">     -1.45501118 </i>
   </energy>
  </scstep>
  <scstep>
   <time name="diag">    0.02    0.02</time>
   <time name="diis">    0.01    0.01</time>
   <time name="orth">    0.00    0.00</time>
   <time name="total">    0.08    0.08</time>
   <dipole>
    <v name="dipole">     -0.00000000      -0.00000000       0.00000000 </v>
    <i name="Tr[quadrupol]">    -18.52591854 </i>
    <i name="Echarged">      0.00000000 </i>
    <i name="Edipol_quadrupol">      0.00000000 </i>
    <i name="Eion">      0.00000000 </i>
   </dipole>
   <energy>
    <i name="e_fr_energy">     -1.47398383 </i>
    <i name="e_wo_entrp">     -1.43661718 </i>
    <i name="e_0_energy">     -1.45530050 </i>
   </energy>
  </scstep>
  <scstep>
   <time name="diag">    0.02    0.02</time>
   <time name="diis">    0.01    0.01</time>
   <time name="orth">    0.00    0.00</time>
   <time name="total">    0.09    0.09</time>
   <dipole>
    <v name="dipole">     -0.00000000      -0.00000000       0.00000000 </v>
    <i name="Tr[quadrupol]">    -18.53271605 </i>
    <i name="Echarged">      0.00000000 </i>
    <i name="Edipol_quadrupol">      0.00000000 </i>
    <i name="Eion">      0.00000000 </i>
   </dipole>
   <energy>
    <i name="e_fr_energy">     -1.47399830 </i>
    <i name="e_wo_entrp">     -1.43663083 </i>
    <i name="e_0_energy">     -1.45531457 </i>
   </energy>
  </scstep>
  <scstep>
   <time name="diag">    0.02    0.02</time>
   <time name="diis">    0.01    0.01</time>
   <time name="orth">    0.00    0.00</time>
   <time name="total">    0.09    0.09</time>
   <dipole>
    <v name="dipole">     -0.00000000      -0.00000000       0.00000000 </v>
    <i name="Tr[quadrupol]">    -18.53483338 </i>
    <i name="Echarged">      0.00000000 </i>
    <i name="Edipol_quadrupol">      0.00000000 </i>
    <i name="Eion">      0.00000000 </i>
   </dipole>
   <energy>
    <i name="e_fr_energy">     -1.47399963 </i>
    <i name="e_wo_entrp">     -1.43663179 </i>
    <i name="e_0_energy">     -1.45531571 </i>
   </energy>
  </scstep>
  <scstep>
   <time name="diag">    0.02    0.02</time>
   <time name="diis">    0.01    0.01</time>
   <time name="orth">    0.00    0.00</time>
   <time name="total">    0.09    0.09</time>
   <dipole>
    <v name="dipole">     -0.00000000      -0.00000000       0.00000000 </v>
    <i name="Tr[quadrupol]">    -18.54082463 </i>
    <i name="Echarged">      0.00000000 </i>
    <i name="Edipol_quadrupol">      0.00000000 </i>
    <i name="Eion">      0.00000000 </i>
   </dipole>
   <energy>
    <i name="e_fr_energy">     -1.47400014 </i>
    <i name="e_wo_entrp">     -1.43663197 </i>
    <i name="e_0_energy">     -1.45531606 </i>
   </energy>
  </scstep>
  <scstep>
   <time name="diag">    0.04    0.04</time>
   <time name="diis">    0.02    0.03</time>
   <time name="orth">    0.00    0.00</time>
   <time name="total">    0.13    0.15</time>
   <dipole>
    <v name="dipole">     -0.00000000      -0.00000000       0.00000000 </v>
    <i name="Tr[quadrupol]">    -18.54244747 </i>
    <i name="Echarged">      0.00000000 </i>
    <i name="Edipol_quadrupol">      0.00000000 </i>
    <i name="Eion">      0.00000000 </i>
   </dipole>
   <energy>
    <i name="e_fr_energy">     -1.47399999 </i>
    <i name="e_wo_entrp">     -1.43662912 </i>
    <i name="e_0_energy">     -1.45531455 </i>
   </energy>
  </scstep>
  <scstep>
   <time name="diag">    0.02    0.02</time>
   <time name="diis">    0.01    0.01</time>
   <time name="orth">    0.00    0.00</time>
   <time name="total">    0.10    0.11</time>
   <dipole>
    <v name="dipole">     -0.00000000      -0.00000000       0.00000000 </v>
    <i name="Tr[quadrupol]">    -18.54572797 </i>
    <i name="Echarged">      0.00000000 </i>
    <i name="Edipol_quadrupol">      0.00000000 </i>
    <i name="Eion">      0.00000000 </i>
   </dipole>
   <energy>
    <i name="e_fr_energy">     -1.47400105 </i>
    <i name="e_wo_entrp">     -1.43662745 </i>
    <i name="e_0_energy">     -1.45531425 </i>
   </energy>
  </scstep>
  <scstep>
   <time name="diag">    0.02    0.02</time>
   <time name="diis">    0.01    0.01</time>
   <time name="orth">    0.00    0.00</time>
   <time name="total">    0.08    0.09</time>
   <dipole>
    <v name="dipole">     -0.00000000      -0.00000000       0.00000000 </v>
    <i name="Tr[quadrupol]">    -18.54550886 </i>
    <i name="Echarged">      0.00000000 </i>
    <i name="Edipol_quadrupol">      0.00000000 </i>
    <i name="Eion">      0.00000000 </i>
   </dipole>
   <energy>
    <i name="e_fr_energy">     -1.47400121 </i>
    <i name="e_wo_entrp">     -1.43662951 </i>
    <i name="e_0_energy">     -1.45531536 </i>
   </energy>
  </scstep>
  <scstep>
   <time name="diag">    0.02    0.02</time>
   <time name="diis">    0.01    0.01</time>
   <time name="orth">    0.00    0.00</time>
   <time name="total">    0.08    0.09</time>
   <dipole>
    <v name="dipole">     -0.00000000      -0.00000000       0.00000000 </v>
    <i name="Tr[quadrupol]">    -18.54522369 </i>
    <i name="Echarged">      0.00000000 </i>
    <i name="Edipol_quadrupol">      0.00000000 </i>
    <i name="Eion">      0.00000000 </i>
   </dipole>
   <energy>
    <i name="e_fr_energy">     -1.47400126 </i>
    <i name="e_wo_entrp">     -1.43663000 </i>
    <i name="e_0_energy">     -1.45531563 </i>
   </energy>
  </scstep>
  <scstep>
   <time name="diag">    0.02    0.02</time>
   <time name="diis">    0.01    0.01</time>
   <time name="orth">    0.00    0.00</time>
   <time name="total">    0.08    0.08</time>
   <dipole>
    <v name="dipole">     -0.00000000      -0.00000000       0.00000000 </v>
    <i name="Tr[quadrupol]">    -18.54510498 </i>
    <i name="Echarged">      0.00000000 </i>
    <i name="Edipol_quadrupol">      0.00000000 </i>
    <i name="Eion">      0.00000000 </i>
   </dipole>
   <energy>
    <i name="e_fr_energy">     -1.47400127 </i>
    <i name="e_wo_entrp">     -1.43663036 </i>
    <i name="e_0_energy">     -1.45531581 </i>
   </energy>
  </scstep>
  <scstep>
   <time name="diag">    0.02    0.02</time>
   <time name="diis">    0.01    0.01</time>
   <time name="orth">    0.00    0.00</time>
   <time name="total">    0.09    0.09</time>
   <dipole>
    <v name="dipole">     -0.00000000      -0.00000000       0.00000000 </v>
    <i name="Tr[quadrupol]">    -18.54480210 </i>
    <i name="Echarged">      0.00000000 </i>
    <i name="Edipol_quadrupol">      0.00000000 </i>
    <i name="Eion">      0.00000000 </i>
   </dipole>
   <energy>
    <i name="e_fr_energy">     -1.47400128 </i>
    <i name="e_wo_entrp">     -1.43663081 </i>
    <i name="e_0_energy">     -1.45531604 </i>
   </energy>
  </scstep>
  <scstep>
   <time name="diag">    0.02    0.02</time>
   <time name="diis">    0.01    0.01</time>
   <time name="orth">    0.00    0.00</time>
   <time name="total">    0.07    0.07</time>
   <dipole>
    <v name="dipole">     -0.00000000      -0.00000000       0.00000000 </v>
    <i name="Tr[quadrupol]">    -18.54470005 </i>
    <i name="Echarged">      0.00000000 </i>
    <i name="Edipol_quadrupol">      0.00000000 </i>
    <i name="Eion">      0.00000000 </i>
   </dipole>
   <energy>
    <i name="alphaZ">     -0.66650138 </i>
    <i name="ewald">     12.04145734 </i>
    <i name="hartreedc">    -26.75679572 </i>
    <i name="XCdc">   -146.36312290 </i>
    <i name="pawpsdc">    168.28344813 </i>
    <i name="pawaedc">    -18.29124648 </i>
    <i name="eentropy">     -0.03737032 </i>
    <i name="bandstr">    -10.31606776 </i>
    <i name="atom">     20.63219781 </i>
    <i name="e_fr_energy">     -1.47400129 </i>
    <i name="e_wo_entrp">     -1.43663097 </i>
    <i name="e_0_energy">     -1.45531613 </i>
   </energy>
  </scstep>
  <structure>
   <crystal>
    <varray name="basis" >
     <v>       5.73109405       1.53564202       0.00000000 </v>
     <v>       1.53564202       5.73109405       0.00000000 </v>
     <v>     -14.42223299     -14.42223299      14.42223299 </v>
    </varray>
    <i name="volume">    439.69411521 </i>
    <varray name="rec_basis" >
     <v>       0.18798335      -0.05036999       0.13761336 </v>
     <v>      -0.05036999       0.18798335       0.13761336 </v>
     <v>       0.00000000       0.00000000       0.06933739 </v>
    </varray>
   </crystal>
   <varray name="positions" >
    <v>       0.50000095       0.50000095       0.41602434 </v>
    <v>       0.00000010       0.00000010       0.50000000 </v>
    <v>       0.50000095       0.50000095       0.50000000 </v>
    <v>       0.00000010       0.00000010       0.58397566 </v>
   </varray>
  </structure>
  <varray name="forces" >
   <v>       1.09562722       1.09562722      -1.47514808 </v>
   <v>       1.34705128       1.34705128      -1.22181211 </v>
   <v>      -1.34705128      -1.34705128       1.22181211 </v>
   <v>      -1.09562722      -1.09562722       1.47514808 </v>
  </varray>
  <varray name="stress" >
   <v>      15.37270331       6.46385431      -9.66867900 </v>
   <v>       6.46385431      15.37270331      -9.66867900 </v>
   <v>      -9.66867894      -9.66867894      13.05389639 </v>
  </varray>
  <energy>
   <i name="e_fr_energy">     -1.47400129 </i>
   <i name="e_wo_entrp">     -1.43663097 </i>
   <i name="e_0_energy">     -1.45531613 </i>
  </energy>
  <time name="totalsc">    2.22    2.36</time>
  <eigenvalues>
   <array>
    <dimension dim="1">band</dimension>
    <dimension dim="2">kpoint</dimension>
    <dimension dim="3">spin</dimension>
    <field>eigene</field>
    <field>occ</field>
    <set>
     <set comment="spin 1">
      <set comment="kpoint 1">
       <r>   -4.1236    1.0000 </r>
       <r>   -1.8023    0.9996 </r>
       <r>   -0.0265    0.0000 </r>
       <r>    0.5719    0.0000 </r>
       <r>    1.1610    0.0000 </r>
       <r>    1.2026    0.0000 </r>
       <r>    1.2888    0.0000 </r>
       <r>    2.3333    0.0000 </r>
      </set>
      <set comment="kpoint 2">
       <r>   -3.5034    1.0000 </r>
       <r>   -1.5953    0.6590 </r>
       <r>   -1.1957    0.0000 </r>
       <r>    0.1811    0.0000 </r>
       <r>    0.3638    0.0000 </r>
       <r>    0.5146    0.0000 </r>
       <r>    0.8467    0.0000 </r>
       <r>    1.5229    0.0000 </r>
      </set>
      <set comment="kpoint 3">
       <r>   -3.4931    1.0000 </r>
       <r>   -1.6157    0.7577 </r>
       <r>   -1.1805    0.0000 </r>
       <r>   -0.2266    0.0000 </r>
       <r>    0.4454    0.0000 </r>
       <r>    0.9124    0.0000 </r>
       <r>    1.0619    0.0000 </r>
       <r>    1.5624    0.0000 </r>
      </set>
      <set comment="kpoint 4">
       <r>   -2.4910    1.0000 </r>
       <r>   -2.3889    1.0000 </r>
       <r>   -1.6679    0.9245 </r>
       <r>   -0.2095    0.0000 </r>
       <r>   -0.1667    0.0000 </r>
       <r>    0.5552    0.0000 </r>
       <r>    1.6000    0.0000 </r>
       <r>    1.9372    0.0000 </r>
      </set>
     </set>
    </set>
   </array>
  </eigenvalues>
  <separator name="orbital magnetization" >
   <v name="MAGDIPOLOUT">      0.00000000      0.00000000      0.00000000</v>
  </separator>
  <dos>
   <i name="efermi">     -1.56630848 </i>
   <total>
    <array>
     <dimension dim="1">gridpoints</dimension>
     <dimension dim="2">spin</dimension>
     <field>energy</field>
     <field>total</field>
     <field>integrated</field>
     <set>
      <set comment="spin 1">
       <r>    -5.1236     0.0000     0.0000 </r>
       <r>    -5.0954     0.0000     0.0000 </r>
       <r>    -5.0673     0.0000     0.0000 </r>
       <r>    -5.0391     0.0000     0.0000 </r>
       <r>    -5.0109     0.0000     0.0000 </r>
       <r>    -4.9827     0.0000     0.0000 </r>
       <r>    -4.9545     0.0000     0.0000 </r>
       <r>    -4.9263     0.0000     0.0000 </r>
       <r>    -4.8981     0.0000     0.0000 </r>
       <r>    -4.8699     0.0000     0.0000 </r>
       <r>    -4.8417     0.0000     0.0000 </r>
       <r>    -4.8135     0.0000     0.0000 </r>
       <r>    -4.7854     0.0000     0.0000 </r>
       <r>    -4.7572     0.0000     0.0000 </r>
       <r>    -4.7290     0.0000     0.0000 </r>
       <r>    -4.7008     0.0000     0.0000 </r>
       <r>    -4.6726     0.0000     0.0000 </r>
       <r>    -4.6444     0.0000     0.0000 </r>
       <r>    -4.6162     0.0000     0.0000 </r>
       <r>    -4.5880     0.0000     0.0000 </r>
       <r>    -4.5598     0.0000     0.0000 </r>
       <r>    -4.5316     0.0000     0.0000 </r>
       <r>    -4.5035     0.0000     0.0000 </r>
       <r>    -4.4753     0.0000     0.0000 </r>
       <r>    -4.4471     0.0000     0.0000 </r>
       <r>    -4.4189     0.0001     0.0000 </r>
       <r>    -4.3907     0.0005     0.0000 </r>
       <r>    -4.3625     0.0023     0.0001 </r>
       <r>    -4.3343     0.0085     0.0003 </r>
       <r>    -4.3061     0.0275     0.0011 </r>
       <r>    -4.2779     0.0758     0.0032 </r>
       <r>    -4.2497     0.1790     0.0083 </r>
       <r>    -4.2216     0.3610     0.0185 </r>
       <r>    -4.1934     0.6226     0.0360 </r>
       <r>    -4.1652     0.9177     0.0619 </r>
       <r>    -4.1370     1.1563     0.0945 </r>
       <r>    -4.1088     1.2454     0.1296 </r>
       <r>    -4.0806     1.1467     0.1619 </r>
       <r>    -4.0524     0.9026     0.1873 </r>
       <r>    -4.0242     0.6073     0.2045 </r>
       <r>    -3.9960     0.3493     0.2143 </r>
       <r>    -3.9678     0.1717     0.2192 </r>
       <r>    -3.9397     0.0722     0.2212 </r>
       <r>    -3.9115     0.0259     0.2219 </r>
       <r>    -3.8833     0.0080     0.2221 </r>
       <r>    -3.8551     0.0021     0.2222 </r>
       <r>    -3.8269     0.0005     0.2222 </r>
       <r>    -3.7987     0.0006     0.2222 </r>
       <r>    -3.7705     0.0026     0.2223 </r>
       <r>    -3.7423     0.0116     0.2226 </r>
       <r>    -3.7141     0.0445     0.2239 </r>
       <r>    -3.6859     0.1459     0.2280 </r>
       <r>    -3.6578     0.4089     0.2395 </r>
       <r>    -3.6296     0.9803     0.2672 </r>
       <r>    -3.6014     2.0099     0.3238 </r>
       <r>    -3.5732     3.5250     0.4232 </r>
       <r>    -3.5450     5.2883     0.5723 </r>
       <r>    -3.5168     6.7866     0.7636 </r>
       <r>    -3.4886     7.4503     0.9736 </r>
       <r>    -3.4604     6.9967     1.1708 </r>
       <r>    -3.4322     5.6210     1.3293 </r>
       <r>    -3.4040     3.8632     1.4382 </r>
       <r>    -3.3759     2.2713     1.5022 </r>
       <r>    -3.3477     1.1424     1.5344 </r>
       <r>    -3.3195     0.4915     1.5483 </r>
       <r>    -3.2913     0.1809     1.5534 </r>
       <r>    -3.2631     0.0570     1.5550 </r>
       <r>    -3.2349     0.0153     1.5554 </r>
       <r>    -3.2067     0.0035     1.5555 </r>
       <r>    -3.1785     0.0007     1.5556 </r>
       <r>    -3.1503     0.0001     1.5556 </r>
       <r>    -3.1221     0.0000     1.5556 </r>
       <r>    -3.0940     0.0000     1.5556 </r>
       <r>    -3.0658     0.0000     1.5556 </r>
       <r>    -3.0376     0.0000     1.5556 </r>
       <r>    -3.0094     0.0000     1.5556 </r>
       <r>    -2.9812     0.0000     1.5556 </r>
       <r>    -2.9530     0.0000     1.5556 </r>
       <r>    -2.9248     0.0000     1.5556 </r>
       <r>    -2.8966     0.0000     1.5556 </r>
       <r>    -2.8684     0.0000     1.5556 </r>
       <r>    -2.8403     0.0000     1.5556 </r>
       <r>    -2.8121     0.0000     1.5556 </r>
       <r>    -2.7839     0.0002     1.5556 </r>
       <r>    -2.7557     0.0012     1.5556 </r>
       <r>    -2.7275     0.0051     1.5557 </r>
       <r>    -2.6993     0.0190     1.5563 </r>
       <r>    -2.6711     0.0606     1.5580 </r>
       <r>    -2.6429     0.1661     1.5627 </r>
       <r>    -2.6147     0.3905     1.5737 </r>
       <r>    -2.5865     0.7904     1.5960 </r>
       <r>    -2.5584     1.3839     1.6350 </r>
       <r>    -2.5302     2.1129     1.6945 </r>
       <r>    -2.5020     2.8464     1.7748 </r>
       <r>    -2.4738     3.4364     1.8716 </r>
       <r>    -2.4456     3.7812     1.9782 </r>
       <r>    -2.4174     3.8397     2.0865 </r>
       <r>    -2.3892     3.6071     2.1882 </r>
       <r>    -2.3610     3.1067     2.2757 </r>
       <r>    -2.3328     2.4143     2.3438 </r>
       <r>    -2.3046     1.6652     2.3907 </r>
       <r>    -2.2765     1.0057     2.4191 </r>
       <r>    -2.2483     0.5269     2.4339 </r>
       <r>    -2.2201     0.2381     2.4407 </r>
       <r>    -2.1919     0.0924     2.4433 </r>
       <r>    -2.1637     0.0307     2.4441 </r>
       <r>    -2.1355     0.0088     2.4444 </r>
       <r>    -2.1073     0.0022     2.4444 </r>
       <r>    -2.0791     0.0007     2.4445 </r>
       <r>    -2.0509     0.0015     2.4445 </r>
       <r>    -2.0227     0.0055     2.4446 </r>
       <r>    -1.9946     0.0187     2.4452 </r>
       <r>    -1.9664     0.0545     2.4467 </r>
       <r>    -1.9382     0.1363     2.4506 </r>
       <r>    -1.9100     0.2925     2.4588 </r>
       <r>    -1.8818     0.5414     2.4741 </r>
       <r>    -1.8536     0.8733     2.4987 </r>
       <r>    -1.8254     1.2543     2.5340 </r>
       <r>    -1.7972     1.6694     2.5811 </r>
       <r>    -1.7690     2.1824     2.6426 </r>
       <r>    -1.7408     2.9474     2.7257 </r>
       <r>    -1.7127     4.1212     2.8419 </r>
       <r>    -1.6845     5.7049     3.0027 </r>
       <r>    -1.6563     7.4242     3.2120 </r>
       <r>    -1.6281     8.7678     3.4592 </r>
       <r>    -1.5999     9.2111     3.7188 </r>
       <r>    -1.5717     8.5118     3.9588 </r>
       <r>    -1.5435     6.8696     4.1524 </r>
       <r>    -1.5153     4.8180     4.2882 </r>
       <r>    -1.4871     2.9257     4.3707 </r>
       <r>    -1.4589     1.5360     4.4140 </r>
       <r>    -1.4308     0.7053     4.4339 </r>
       <r>    -1.4026     0.3189     4.4429 </r>
       <r>    -1.3744     0.2516     4.4500 </r>
       <r>    -1.3462     0.4722     4.4633 </r>
       <r>    -1.3180     1.0589     4.4931 </r>
       <r>    -1.2898     2.1250     4.5530 </r>
       <r>    -1.2616     3.6678     4.6564 </r>
       <r>    -1.2334     5.4220     4.8093 </r>
       <r>    -1.2052     6.8620     5.0027 </r>
       <r>    -1.1770     7.4353     5.2123 </r>
       <r>    -1.1489     6.8979     5.4068 </r>
       <r>    -1.1207     5.4792     5.5612 </r>
       <r>    -1.0925     3.7267     5.6663 </r>
       <r>    -1.0643     2.1704     5.7275 </r>
       <r>    -1.0361     1.0823     5.7580 </r>
       <r>    -1.0079     0.4622     5.7710 </r>
       <r>    -0.9797     0.1690     5.7758 </r>
       <r>    -0.9515     0.0529     5.7773 </r>
       <r>    -0.9233     0.0142     5.7777 </r>
       <r>    -0.8951     0.0033     5.7778 </r>
       <r>    -0.8670     0.0006     5.7778 </r>
       <r>    -0.8388     0.0001     5.7778 </r>
       <r>    -0.8106     0.0000     5.7778 </r>
       <r>    -0.7824     0.0000     5.7778 </r>
       <r>    -0.7542     0.0000     5.7778 </r>
       <r>    -0.7260     0.0000     5.7778 </r>
       <r>    -0.6978     0.0000     5.7778 </r>
       <r>    -0.6696     0.0000     5.7778 </r>
       <r>    -0.6414     0.0000     5.7778 </r>
       <r>    -0.6132     0.0000     5.7778 </r>
       <r>    -0.5851     0.0000     5.7778 </r>
       <r>    -0.5569     0.0000     5.7778 </r>
       <r>    -0.5287     0.0002     5.7778 </r>
       <r>    -0.5005     0.0010     5.7778 </r>
       <r>    -0.4723     0.0046     5.7779 </r>
       <r>    -0.4441     0.0186     5.7785 </r>
       <r>    -0.4159     0.0651     5.7803 </r>
       <r>    -0.3877     0.1957     5.7858 </r>
       <r>    -0.3595     0.5059     5.8001 </r>
       <r>    -0.3313     1.1267     5.8318 </r>
       <r>    -0.3032     2.1655     5.8929 </r>
       <r>    -0.2750     3.5985     5.9943 </r>
       <r>    -0.2468     5.1818     6.1404 </r>
       <r>    -0.2186     6.4837     6.3232 </r>
       <r>    -0.1904     7.0762     6.5227 </r>
       <r>    -0.1622     6.7789     6.7137 </r>
       <r>    -0.1340     5.7703     6.8764 </r>
       <r>    -0.1058     4.4728     7.0025 </r>
       <r>    -0.0776     3.2998     7.0955 </r>
       <r>    -0.0494     2.4579     7.1648 </r>
       <r>    -0.0213     1.9312     7.2193 </r>
       <r>     0.0069     1.6190     7.2649 </r>
       <r>     0.0351     1.4907     7.3069 </r>
       <r>     0.0633     1.6338     7.3530 </r>
       <r>     0.0915     2.1643     7.4140 </r>
       <r>     0.1197     3.0715     7.5006 </r>
       <r>     0.1479     4.1221     7.6168 </r>
       <r>     0.1761     4.9340     7.7559 </r>
       <r>     0.2043     5.2122     7.9028 </r>
       <r>     0.2325     4.9809     8.0432 </r>
       <r>     0.2606     4.6023     8.1729 </r>
       <r>     0.2888     4.5334     8.3007 </r>
       <r>     0.3170     5.0095     8.4420 </r>
       <r>     0.3452     5.9121     8.6086 </r>
       <r>     0.3734     6.9195     8.8037 </r>
       <r>     0.4016     7.7866     9.0232 </r>
       <r>     0.4298     8.4973     9.2627 </r>
       <r>     0.4580     9.1618     9.5210 </r>
       <r>     0.4862     9.7814     9.7967 </r>
       <r>     0.5144    10.1249    10.0821 </r>
       <r>     0.5425     9.8475    10.3597 </r>
       <r>     0.5707     8.7550    10.6065 </r>
       <r>     0.5989     6.9835    10.8034 </r>
       <r>     0.6271     4.9507    10.9430 </r>
       <r>     0.6553     3.1386    11.0314 </r>
       <r>     0.6835     1.8934    11.0848 </r>
       <r>     0.7117     1.3688    11.1234 </r>
       <r>     0.7399     1.5817    11.1680 </r>
       <r>     0.7681     2.4586    11.2373 </r>
       <r>     0.7963     3.8079    11.3446 </r>
       <r>     0.8244     5.2793    11.4935 </r>
       <r>     0.8526     6.4233    11.6745 </r>
       <r>     0.8808     6.8736    11.8683 </r>
       <r>     0.9090     6.5362    12.0526 </r>
       <r>     0.9372     5.6394    12.2115 </r>
       <r>     0.9654     4.6012    12.3412 </r>
       <r>     0.9936     3.8044    12.4485 </r>
       <r>     1.0218     3.4200    12.5449 </r>
       <r>     1.0500     3.3779    12.6401 </r>
       <r>     1.0782     3.4833    12.7383 </r>
       <r>     1.1063     3.5730    12.8390 </r>
       <r>     1.1345     3.5882    12.9402 </r>
       <r>     1.1627     3.5362    13.0399 </r>
       <r>     1.1909     3.4216    13.1363 </r>
       <r>     1.2191     3.2270    13.2273 </r>
       <r>     1.2473     2.9371    13.3101 </r>
       <r>     1.2755     2.5579    13.3822 </r>
       <r>     1.3037     2.1191    13.4419 </r>
       <r>     1.3319     1.6827    13.4894 </r>
       <r>     1.3600     1.3646    13.5278 </r>
       <r>     1.3882     1.3417    13.5657 </r>
       <r>     1.4164     1.8152    13.6168 </r>
       <r>     1.4446     2.9198    13.6991 </r>
       <r>     1.4728     4.6010    13.8289 </r>
       <r>     1.5010     6.5340    14.0130 </r>
       <r>     1.5292     8.1797    14.2436 </r>
       <r>     1.5574     8.9995    14.4973 </r>
       <r>     1.5856     8.7170    14.7431 </r>
       <r>     1.6138     7.4485    14.9530 </r>
       <r>     1.6419     5.6204    15.1115 </r>
       <r>     1.6701     3.7435    15.2170 </r>
       <r>     1.6983     2.1994    15.2790 </r>
       <r>     1.7265     1.1471    15.3113 </r>
       <r>     1.7547     0.5640    15.3272 </r>
       <r>     1.7829     0.3516    15.3371 </r>
       <r>     1.8111     0.4264    15.3492 </r>
       <r>     1.8393     0.7429    15.3701 </r>
       <r>     1.8675     1.2512    15.4054 </r>
       <r>     1.8957     1.8373    15.4572 </r>
       <r>     1.9238     2.3133    15.5224 </r>
       <r>     1.9520     2.4909    15.5926 </r>
       <r>     1.9802     2.2929    15.6572 </r>
       <r>     2.0084     1.8043    15.7081 </r>
       <r>     2.0366     1.2138    15.7423 </r>
       <r>     2.0648     0.6983    15.7620 </r>
       <r>     2.0930     0.3451    15.7717 </r>
       <r>     2.1212     0.1521    15.7760 </r>
       <r>     2.1494     0.0777    15.7782 </r>
       <r>     2.1776     0.0881    15.7807 </r>
       <r>     2.2057     0.1759    15.7857 </r>
       <r>     2.2339     0.3502    15.7955 </r>
       <r>     2.2621     0.6075    15.8126 </r>
       <r>     2.2903     0.9026    15.8381 </r>
       <r>     2.3185     1.1468    15.8704 </r>
       <r>     2.3467     1.2454    15.9055 </r>
       <r>     2.3749     1.1563    15.9381 </r>
       <r>     2.4031     0.9177    15.9640 </r>
       <r>     2.4313     0.6226    15.9815 </r>
       <r>     2.4595     0.3610    15.9917 </r>
       <r>     2.4876     0.1790    15.9968 </r>
       <r>     2.5158     0.0758    15.9989 </r>
       <r>     2.5440     0.0275    15.9997 </r>
       <r>     2.5722     0.0085    15.9999 </r>
       <r>     2.6004     0.0023    16.0000 </r>
       <r>     2.6286     0.0005    16.0000 </r>
       <r>     2.6568     0.0001    16.0000 </r>
       <r>     2.6850     0.0000    16.0000 </r>
       <r>     2.7132     0.0000    16.0000 </r>
       <r>     2.7414     0.0000    16.0000 </r>
       <r>     2.7695     0.0000    16.0000 </r>
       <r>     2.7977     0.0000    16.0000 </r>
       <r>     2.8259     0.0000    16.0000 </r>
       <r>     2.8541     0.0000    16.0000 </r>
       <r>     2.8823     0.0000    16.0000 </r>
       <r>     2.9105     0.0000    16.0000 </r>
       <r>     2.9387     0.0000    16.0000 </r>
       <r>     2.9669     0.0000    16.0000 </r>
       <r>     2.9951     0.0000    16.0000 </r>
       <r>     3.0233     0.0000    16.0000 </r>
       <r>     3.0514     0.0000    16.0000 </r>
       <r>     3.0796     0.0000    16.0000 </r>
       <r>     3.1078     0.0000    16.0000 </r>
       <r>     3.1360     0.0000    16.0000 </r>
       <r>     3.1642     0.0000    16.0000 </r>
       <r>     3.1924     0.0000    16.0000 </r>
       <r>     3.2206     0.0000    16.0000 </r>
       <r>     3.2488     0.0000    16.0000 </r>
       <r>     3.2770     0.0000    16.0000 </r>
       <r>     3.3052     0.0000    16.0000 </r>
       <r>     3.3333     0.0000    16.0000 </r>
      </set>
     </set>
    </array>
   </total>
  </dos>
 </calculation>
 <structure name="finalpos" >
  <crystal>
   <varray name="basis" >
    <v>       5.73109405       1.53564202       0.00000000 </v>
    <v>       1.53564202       5.73109405       0.00000000 </v>
    <v>     -14.42223299     -14.42223299      14.42223299 </v>
   </varray>
   <i name="volume">    439.69411521 </i>
   <varray name="rec_basis" >
    <v>       0.18798335      -0.05036999       0.13761336 </v>
    <v>      -0.05036999       0.18798335       0.13761336 </v>
    <v>       0.00000000       0.00000000       0.06933739 </v>
   </varray>
  </crystal>
  <varray name="positions" >
   <v>       0.50000095       0.50000095       0.41602434 </v>
   <v>       0.00000010       0.00000010       0.50000000 </v>
   <v>       0.50000095       0.50000095       0.50000000 </v>
   <v>       0.00000010       0.00000010       0.58397566 </v>
  </varray>
 </structure>
</modeling>
