unknown system                          
           1
     5.731094    1.535642    0.000000
     1.535642    5.731094    0.000000
   -14.422233  -14.422233   14.422233
   Na
     4
Direct configuration=     1
   0.50000095  0.50000095  0.41602434
   0.00000010  0.00000010  0.50000000
   0.50000095  0.50000095  0.50000000
   0.00000010  0.00000010  0.58397566
