 160 160   0   0
  0.2741897E+02  0.1260737E-08  0.1782951E-08  0.2760082E-08  0.5000000E-15
  1.000000000000000E-004
  CAR 
 unknown system                          
      6.81108914    -16.35895454  301      0.09419002      1.00000000
    -16.359  0.0000E+00  0.0000E+00
    -16.282  0.0000E+00  0.0000E+00
    -16.204  0.0000E+00  0.0000E+00
    -16.127  0.0000E+00  0.0000E+00
    -16.050  0.0000E+00  0.0000E+00
    -15.973  0.0000E+00  0.0000E+00
    -15.896  0.8984E-18  0.6939E-19
    -15.818  0.3481E-14  0.2690E-15
    -15.741  0.6305E-11  0.4872E-12
    -15.664  0.3655E-08  0.2828E-09
    -15.587  0.7047E-06  0.5471E-07
    -15.509  0.4827E-04  0.3783E-05
    -15.432  0.1296E-02  0.1039E-03
    -15.355  0.1526E-01  0.1283E-02
    -15.278  0.8507E-01  0.7853E-02
    -15.200  0.2283E+00  0.2549E-01
    -15.123  0.2994E+00  0.4861E-01
    -15.046  0.2546E+00  0.6828E-01
    -14.969  0.3092E+00  0.9216E-01
    -14.892  0.3666E+00  0.1205E+00
    -14.814  0.2201E+00  0.1375E+00
    -14.737  0.1117E+00  0.1461E+00
    -14.660  0.1072E+00  0.1544E+00
    -14.583  0.5933E-01  0.1590E+00
    -14.505  0.1243E-01  0.1599E+00
    -14.428  0.9463E-03  0.1600E+00
    -14.351  0.2561E-04  0.1600E+00
    -14.274  0.2408E-06  0.1600E+00
    -14.196  0.7674E-09  0.1600E+00
    -14.119  0.8100E-12  0.1600E+00
    -14.042  0.2767E-15  0.1600E+00
    -13.965  0.0000E+00  0.1600E+00
    -13.887  0.0000E+00  0.1600E+00
    -13.810  0.0000E+00  0.1600E+00
    -13.733  0.0000E+00  0.1600E+00
    -13.656  0.0000E+00  0.1600E+00
    -13.579  0.0000E+00  0.1600E+00
    -13.501  0.0000E+00  0.1600E+00
    -13.424  0.0000E+00  0.1600E+00
    -13.347  0.0000E+00  0.1600E+00
    -13.270  0.0000E+00  0.1600E+00
    -13.192  0.0000E+00  0.1600E+00
    -13.115  0.0000E+00  0.1600E+00
    -13.038  0.0000E+00  0.1600E+00
    -12.961  0.0000E+00  0.1600E+00
    -12.883  0.0000E+00  0.1600E+00
    -12.806  0.0000E+00  0.1600E+00
    -12.729  0.0000E+00  0.1600E+00
    -12.652  0.0000E+00  0.1600E+00
    -12.575  0.0000E+00  0.1600E+00
    -12.497  0.0000E+00  0.1600E+00
    -12.420  0.0000E+00  0.1600E+00
    -12.343  0.0000E+00  0.1600E+00
    -12.266  0.0000E+00  0.1600E+00
    -12.188  0.0000E+00  0.1600E+00
    -12.111  0.0000E+00  0.1600E+00
    -12.034  0.0000E+00  0.1600E+00
    -11.957  0.0000E+00  0.1600E+00
    -11.879  0.0000E+00  0.1600E+00
    -11.802  0.0000E+00  0.1600E+00
    -11.725  0.0000E+00  0.1600E+00
    -11.648  0.0000E+00  0.1600E+00
    -11.570  0.0000E+00  0.1600E+00
    -11.493  0.0000E+00  0.1600E+00
    -11.416  0.0000E+00  0.1600E+00
    -11.339  0.0000E+00  0.1600E+00
    -11.262  0.0000E+00  0.1600E+00
    -11.184  0.0000E+00  0.1600E+00
    -11.107  0.0000E+00  0.1600E+00
    -11.030  0.0000E+00  0.1600E+00
    -10.953  0.0000E+00  0.1600E+00
    -10.875  0.0000E+00  0.1600E+00
    -10.798  0.0000E+00  0.1600E+00
    -10.721  0.0000E+00  0.1600E+00
    -10.644  0.0000E+00  0.1600E+00
    -10.566  0.0000E+00  0.1600E+00
    -10.489  0.0000E+00  0.1600E+00
    -10.412  0.0000E+00  0.1600E+00
    -10.335  0.0000E+00  0.1600E+00
    -10.258  0.0000E+00  0.1600E+00
    -10.180  0.0000E+00  0.1600E+00
    -10.103  0.0000E+00  0.1600E+00
    -10.026  0.0000E+00  0.1600E+00
     -9.949  0.0000E+00  0.1600E+00
     -9.871  0.0000E+00  0.1600E+00
     -9.794  0.0000E+00  0.1600E+00
     -9.717  0.0000E+00  0.1600E+00
     -9.640  0.0000E+00  0.1600E+00
     -9.562  0.0000E+00  0.1600E+00
     -9.485  0.0000E+00  0.1600E+00
     -9.408  0.0000E+00  0.1600E+00
     -9.331  0.0000E+00  0.1600E+00
     -9.253  0.0000E+00  0.1600E+00
     -9.176  0.0000E+00  0.1600E+00
     -9.099  0.0000E+00  0.1600E+00
     -9.022  0.0000E+00  0.1600E+00
     -8.945  0.0000E+00  0.1600E+00
     -8.867  0.0000E+00  0.1600E+00
     -8.790  0.0000E+00  0.1600E+00
     -8.713  0.0000E+00  0.1600E+00
     -8.636  0.0000E+00  0.1600E+00
     -8.558  0.0000E+00  0.1600E+00
     -8.481  0.0000E+00  0.1600E+00
     -8.404  0.0000E+00  0.1600E+00
     -8.327  0.0000E+00  0.1600E+00
     -8.249  0.0000E+00  0.1600E+00
     -8.172  0.0000E+00  0.1600E+00
     -8.095  0.0000E+00  0.1600E+00
     -8.018  0.0000E+00  0.1600E+00
     -7.941  0.0000E+00  0.1600E+00
     -7.863  0.0000E+00  0.1600E+00
     -7.786  0.0000E+00  0.1600E+00
     -7.709  0.0000E+00  0.1600E+00
     -7.632  0.0000E+00  0.1600E+00
     -7.554  0.0000E+00  0.1600E+00
     -7.477  0.0000E+00  0.1600E+00
     -7.400  0.0000E+00  0.1600E+00
     -7.323  0.0000E+00  0.1600E+00
     -7.245  0.0000E+00  0.1600E+00
     -7.168  0.0000E+00  0.1600E+00
     -7.091  0.0000E+00  0.1600E+00
     -7.014  0.0000E+00  0.1600E+00
     -6.936  0.0000E+00  0.1600E+00
     -6.859  0.0000E+00  0.1600E+00
     -6.782  0.0000E+00  0.1600E+00
     -6.705  0.0000E+00  0.1600E+00
     -6.628  0.0000E+00  0.1600E+00
     -6.550  0.0000E+00  0.1600E+00
     -6.473  0.0000E+00  0.1600E+00
     -6.396  0.0000E+00  0.1600E+00
     -6.319  0.0000E+00  0.1600E+00
     -6.241  0.0000E+00  0.1600E+00
     -6.164  0.0000E+00  0.1600E+00
     -6.087  0.0000E+00  0.1600E+00
     -6.010  0.0000E+00  0.1600E+00
     -5.932  0.0000E+00  0.1600E+00
     -5.855  0.0000E+00  0.1600E+00
     -5.778  0.0000E+00  0.1600E+00
     -5.701  0.0000E+00  0.1600E+00
     -5.624  0.0000E+00  0.1600E+00
     -5.546  0.0000E+00  0.1600E+00
     -5.469  0.0000E+00  0.1600E+00
     -5.392  0.0000E+00  0.1600E+00
     -5.315  0.0000E+00  0.1600E+00
     -5.237  0.0000E+00  0.1600E+00
     -5.160  0.0000E+00  0.1600E+00
     -5.083  0.0000E+00  0.1600E+00
     -5.006  0.0000E+00  0.1600E+00
     -4.928  0.0000E+00  0.1600E+00
     -4.851  0.0000E+00  0.1600E+00
     -4.774  0.0000E+00  0.1600E+00
     -4.697  0.1797E-17  0.1600E+00
     -4.619  0.6855E-14  0.1600E+00
     -4.542  0.1331E-10  0.1600E+00
     -4.465  0.8261E-08  0.1600E+00
     -4.388  0.1673E-05  0.1600E+00
     -4.311  0.1140E-03  0.1600E+00
     -4.233  0.2742E-02  0.1602E+00
     -4.156  0.2509E-01  0.1622E+00
     -4.079  0.9780E-01  0.1697E+00
     -4.002  0.1885E+00  0.1843E+00
     -3.924  0.2200E+00  0.2013E+00
     -3.847  0.2455E+00  0.2202E+00
     -3.770  0.3457E+00  0.2469E+00
     -3.693  0.3761E+00  0.2760E+00
     -3.615  0.3128E+00  0.3001E+00
     -3.538  0.2651E+00  0.3206E+00
     -3.461  0.2233E+00  0.3378E+00
     -3.384  0.2177E+00  0.3547E+00
     -3.306  0.2309E+00  0.3725E+00
     -3.229  0.1944E+00  0.3875E+00
     -3.152  0.1154E+00  0.3964E+00
     -3.075  0.3976E-01  0.3995E+00
     -2.998  0.6204E-02  0.4000E+00
     -2.920  0.3770E-03  0.4000E+00
     -2.843  0.8226E-05  0.4000E+00
     -2.766  0.6133E-07  0.4000E+00
     -2.689  0.1509E-09  0.4000E+00
     -2.611  0.1197E-12  0.4000E+00
     -2.534  0.3055E-16  0.4000E+00
     -2.457  0.0000E+00  0.4000E+00
     -2.380  0.0000E+00  0.4000E+00
     -2.302  0.0000E+00  0.4000E+00
     -2.225  0.0000E+00  0.4000E+00
     -2.148  0.0000E+00  0.4000E+00
     -2.071  0.0000E+00  0.4000E+00
     -1.994  0.0000E+00  0.4000E+00
     -1.916  0.0000E+00  0.4000E+00
     -1.839  0.0000E+00  0.4000E+00
     -1.762  0.1828E-14  0.4000E+00
     -1.685  0.4081E-11  0.4000E+00
     -1.607  0.2843E-08  0.4000E+00
     -1.530  0.6242E-06  0.4000E+00
     -1.453  0.4380E-04  0.4000E+00
     -1.376  0.1006E-02  0.4001E+00
     -1.298  0.8008E-02  0.4007E+00
     -1.221  0.2613E-01  0.4027E+00
     -1.144  0.5714E-01  0.4071E+00
     -1.067  0.1401E+00  0.4179E+00
     -0.989  0.2956E+00  0.4408E+00
     -0.912  0.4186E+00  0.4731E+00
     -0.835  0.4287E+00  0.5062E+00
     -0.758  0.3948E+00  0.5367E+00
     -0.681  0.3917E+00  0.5670E+00
     -0.603  0.3309E+00  0.5925E+00
     -0.526  0.2029E+00  0.6082E+00
     -0.449  0.1556E+00  0.6202E+00
     -0.372  0.1597E+00  0.6326E+00
     -0.294  0.8056E-01  0.6388E+00
     -0.217  0.1490E-01  0.6399E+00
     -0.140  0.9594E-03  0.6400E+00
     -0.063  0.2091E-04  0.6400E+00
      0.015  0.1508E-06  0.6400E+00
      0.092  0.3532E-09  0.6400E+00
      0.169  0.2645E-12  0.6400E+00
      0.246  0.5750E-16  0.6400E+00
      0.323  0.0000E+00  0.6400E+00
      0.401  0.0000E+00  0.6400E+00
      0.478  0.0000E+00  0.6400E+00
      0.555  0.0000E+00  0.6400E+00
      0.632  0.0000E+00  0.6400E+00
      0.710  0.0000E+00  0.6400E+00
      0.787  0.0000E+00  0.6400E+00
      0.864  0.0000E+00  0.6400E+00
      0.941  0.1752E-15  0.6400E+00
      1.019  0.4713E-12  0.6400E+00
      1.096  0.3939E-09  0.6400E+00
      1.173  0.1031E-06  0.6400E+00
      1.250  0.8557E-05  0.6400E+00
      1.328  0.2287E-03  0.6400E+00
      1.405  0.2011E-02  0.6402E+00
      1.482  0.6057E-02  0.6406E+00
      1.559  0.7543E-02  0.6412E+00
      1.636  0.7514E-02  0.6418E+00
      1.714  0.6376E-02  0.6423E+00
      1.791  0.2326E-02  0.6425E+00
      1.868  0.2926E-03  0.6425E+00
      1.945  0.1452E-04  0.6425E+00
      2.023  0.9665E-04  0.6425E+00
      2.100  0.1417E-02  0.6426E+00
      2.177  0.8805E-02  0.6433E+00
      2.254  0.2728E-01  0.6454E+00
      2.332  0.4548E-01  0.6489E+00
      2.409  0.4109E-01  0.6521E+00
      2.486  0.1807E-01  0.6535E+00
      2.563  0.3272E-02  0.6537E+00
      2.640  0.1507E-02  0.6539E+00
      2.718  0.1053E-01  0.6547E+00
      2.795  0.3435E-01  0.6573E+00
      2.872  0.6144E-01  0.6621E+00
      2.949  0.6519E-01  0.6671E+00
      3.027  0.3140E-01  0.6695E+00
      3.104  0.5761E-02  0.6700E+00
      3.181  0.7469E-03  0.6700E+00
      3.258  0.3257E-02  0.6703E+00
      3.336  0.1428E-01  0.6714E+00
      3.413  0.4003E-01  0.6745E+00
      3.490  0.6324E-01  0.6794E+00
      3.567  0.5304E-01  0.6835E+00
      3.645  0.4536E-01  0.6870E+00
      3.722  0.5130E-01  0.6909E+00
      3.799  0.6334E-01  0.6958E+00
      3.876  0.8050E-01  0.7020E+00
      3.953  0.6700E-01  0.7072E+00
      4.031  0.4799E-01  0.7109E+00
      4.108  0.4016E-01  0.7140E+00
      4.185  0.3892E-01  0.7170E+00
      4.262  0.5203E-01  0.7210E+00
      4.340  0.8046E-01  0.7273E+00
      4.417  0.8301E-01  0.7337E+00
      4.494  0.5508E-01  0.7379E+00
      4.571  0.4946E-01  0.7417E+00
      4.649  0.8606E-01  0.7484E+00
      4.726  0.8354E-01  0.7548E+00
      4.803  0.5631E-01  0.7592E+00
      4.880  0.5832E-01  0.7637E+00
      4.957  0.7167E-01  0.7692E+00
      5.035  0.1010E+00  0.7770E+00
      5.112  0.1206E+00  0.7863E+00
      5.189  0.1224E+00  0.7958E+00
      5.266  0.1258E+00  0.8055E+00
      5.344  0.1357E+00  0.8160E+00
      5.421  0.1266E+00  0.8258E+00
      5.498  0.8946E-01  0.8327E+00
      5.575  0.8122E-01  0.8390E+00
      5.653  0.9608E-01  0.8464E+00
      5.730  0.9533E-01  0.8537E+00
      5.807  0.5991E-01  0.8584E+00
      5.884  0.1871E-01  0.8598E+00
      5.962  0.2383E-02  0.8600E+00
      6.039  0.1093E-03  0.8600E+00
      6.116  0.1691E-05  0.8600E+00
      6.193  0.8525E-08  0.8600E+00
      6.270  0.1374E-10  0.8600E+00
      6.348  0.7004E-14  0.8600E+00
      6.425  0.0000E+00  0.8600E+00
      6.502  0.0000E+00  0.8600E+00
      6.579  0.0000E+00  0.8600E+00
      6.657  0.0000E+00  0.8600E+00
      6.734  0.0000E+00  0.8600E+00
      6.811  0.0000E+00  0.8600E+00
