       N       E                     dE             d eps       ncg     rms          rms(c)
DAV:   1     0.424634864390E+04    0.42463E+04   -0.15483E+05  1432   0.925E+02
DAV:   2     0.336314419108E+03   -0.39100E+04   -0.37582E+04  1832   0.236E+02
DAV:   3    -0.704638697548E+03   -0.10410E+04   -0.10347E+04  1960   0.126E+02
DAV:   4    -0.736290878761E+03   -0.31652E+02   -0.31563E+02  1616   0.268E+01
DAV:   5    -0.737370330199E+03   -0.10795E+01   -0.10789E+01  1864   0.521E+00    0.598E+01
RMM:   6    -0.579386904705E+03    0.15798E+03   -0.56649E+02  1376   0.252E+01    0.229E+01
RMM:   7    -0.580863264659E+03   -0.14764E+01   -0.10149E+02  1560   0.775E+00    0.181E+01
RMM:   8    -0.576860235615E+03    0.40030E+01   -0.22183E+01  1377   0.665E+00    0.604E+00
RMM:   9    -0.574202905495E+03    0.26573E+01   -0.77347E+00  1432   0.335E+00    0.236E+00
RMM:  10    -0.574449092185E+03   -0.24619E+00   -0.27633E+00  1607   0.134E+00    0.175E+00
RMM:  11    -0.574489970399E+03   -0.40878E-01   -0.82091E-01  1376   0.107E+00    0.163E+00
RMM:  12    -0.574412848962E+03    0.77121E-01   -0.11928E-01  1410   0.427E-01    0.945E-01
RMM:  13    -0.574388738305E+03    0.24111E-01   -0.10559E-01  1430   0.326E-01    0.301E-01
RMM:  14    -0.574388665376E+03    0.72928E-04   -0.92880E-02  1503   0.232E-01    0.262E-01
RMM:  15    -0.574398210838E+03   -0.95455E-02   -0.35059E-02  1622   0.175E-01    0.578E-01
RMM:  16    -0.574392658882E+03    0.55520E-02   -0.11000E-02  1376   0.117E-01    0.320E-01
RMM:  17    -0.574398717887E+03   -0.60590E-02   -0.34323E-02  1543   0.179E-01    0.165E-01
RMM:  18    -0.574399124104E+03   -0.40622E-03   -0.19218E-03  1377   0.562E-02    0.844E-02
RMM:  19    -0.574404232666E+03   -0.51086E-02   -0.21734E-03  1380   0.544E-02    0.532E-02
RMM:  20    -0.574407732747E+03   -0.35001E-02   -0.55380E-04  1399   0.248E-02    0.244E-02
RMM:  21    -0.574408214216E+03   -0.48147E-03   -0.23800E-04  1588   0.134E-02    0.148E-02
RMM:  22    -0.574408611895E+03   -0.39768E-03   -0.64647E-05  1425   0.797E-03    0.587E-03
RMM:  23    -0.574408687259E+03   -0.75364E-04   -0.21812E-05  1459   0.478E-03    0.584E-03
RMM:  24    -0.574408705390E+03   -0.18131E-04   -0.76669E-06  1512   0.262E-03    0.179E-03
RMM:  25    -0.574408714490E+03   -0.90996E-05   -0.51246E-06  1476   0.218E-03    0.427E-03
RMM:  26    -0.574408717529E+03   -0.30392E-05   -0.14405E-06  1372   0.132E-03    0.176E-03
RMM:  27    -0.574408718751E+03   -0.12221E-05   -0.17342E-06  1426   0.130E-03    0.122E-03
RMM:  28    -0.574408718990E+03   -0.23855E-06   -0.17970E-07  1206   0.480E-04    0.536E-04
RMM:  29    -0.574408719075E+03   -0.85784E-07   -0.90107E-08  1180   0.301E-04    0.948E-05
RMM:  30    -0.574408719053E+03    0.22661E-07   -0.11367E-08   877   0.124E-04    0.438E-05
RMM:  31    -0.574408719059E+03   -0.65847E-08   -0.39049E-09   711   0.737E-05
   1 F= -.57440872E+03 E0= -.57440872E+03  d E =-.574409E+03
       N       E                     dE             d eps       ncg     rms          rms(c)
DAV:   1    -0.574422641857E+03   -0.13923E-01   -0.23589E+00  1568   0.224E+00    0.238E-01
RMM:   2    -0.574426470075E+03   -0.38282E-02   -0.45549E-02  1419   0.341E-01    0.611E-02
RMM:   3    -0.574426872563E+03   -0.40249E-03   -0.77380E-03  1514   0.141E-01    0.809E-02
RMM:   4    -0.574426874278E+03   -0.17156E-05   -0.14662E-03  1520   0.555E-02    0.636E-02
RMM:   5    -0.574426635169E+03    0.23911E-03   -0.72301E-04  1376   0.374E-02    0.190E-02
RMM:   6    -0.574426605925E+03    0.29244E-04   -0.25183E-04  1541   0.217E-02    0.247E-02
RMM:   7    -0.574426589746E+03    0.16179E-04   -0.11805E-04  1414   0.125E-02    0.115E-02
RMM:   8    -0.574426581396E+03    0.83506E-05   -0.73979E-05  1542   0.929E-03    0.136E-02
RMM:   9    -0.574426575732E+03    0.56638E-05   -0.95726E-06  1438   0.427E-03    0.884E-03
RMM:  10    -0.574426574851E+03    0.88097E-06   -0.20412E-05  1379   0.460E-03    0.284E-03
RMM:  11    -0.574426576854E+03   -0.20029E-05   -0.33943E-06  1588   0.233E-03    0.234E-03
RMM:  12    -0.574426582554E+03   -0.57004E-05   -0.12389E-06  1387   0.129E-03    0.172E-03
RMM:  13    -0.574426587625E+03   -0.50707E-05   -0.10414E-06  1591   0.872E-04    0.192E-03
RMM:  14    -0.574426589926E+03   -0.23009E-05   -0.23530E-07  1338   0.490E-04    0.839E-04
RMM:  15    -0.574426593398E+03   -0.34724E-05   -0.30110E-07  1366   0.576E-04    0.108E-03
RMM:  16    -0.574426595044E+03   -0.16460E-05   -0.16348E-07  1330   0.336E-04    0.804E-04
RMM:  17    -0.574426595916E+03   -0.87203E-06   -0.20660E-07  1391   0.385E-04    0.233E-04
RMM:  18    -0.574426596121E+03   -0.20492E-06   -0.23849E-08   941   0.194E-04    0.267E-04
RMM:  19    -0.574426596295E+03   -0.17378E-06   -0.19664E-08   934   0.148E-04    0.124E-04
RMM:  20    -0.574426596372E+03   -0.76754E-07   -0.16730E-08   890   0.144E-04    0.173E-04
RMM:  21    -0.574426596428E+03   -0.55810E-07   -0.10928E-08   862   0.112E-04    0.428E-05
RMM:  22    -0.574426596446E+03   -0.18281E-07   -0.30642E-09   735   0.659E-05    0.567E-05
RMM:  23    -0.574426596457E+03   -0.11434E-07   -0.22993E-09   607   0.494E-05    0.421E-05
RMM:  24    -0.574426596457E+03   -0.13097E-09   -0.88923E-10   480   0.395E-05
   2 F= -.57442660E+03 E0= -.57442660E+03  d E =-.178774E-01
       N       E                     dE             d eps       ncg     rms          rms(c)
DAV:   1    -0.574418425302E+03    0.81712E-02   -0.18153E+01  1528   0.624E+00    0.659E-01
RMM:   2    -0.574447197582E+03   -0.28772E-01   -0.34405E-01  1399   0.956E-01    0.171E-01
RMM:   3    -0.574450332811E+03   -0.31352E-02   -0.58643E-02  1521   0.405E-01    0.228E-01
RMM:   4    -0.574450358973E+03   -0.26162E-04   -0.10816E-02  1505   0.156E-01    0.180E-01
RMM:   5    -0.574448541575E+03    0.18174E-02   -0.57531E-03  1376   0.107E-01    0.574E-02
RMM:   6    -0.574448327918E+03    0.21366E-03   -0.17627E-03  1530   0.596E-02    0.696E-02
RMM:   7    -0.574448173464E+03    0.15445E-03   -0.65825E-04  1529   0.294E-02    0.328E-02
RMM:   8    -0.574448088386E+03    0.85078E-04   -0.42686E-04  1472   0.222E-02    0.240E-02
RMM:   9    -0.574448078567E+03    0.98191E-05   -0.17339E-04  1716   0.142E-02    0.309E-02
RMM:  10    -0.574448049095E+03    0.29472E-04   -0.12462E-04  1382   0.117E-02    0.899E-03
RMM:  11    -0.574448067131E+03   -0.18036E-04   -0.44037E-05  1432   0.798E-03    0.603E-03
RMM:  12    -0.574448081418E+03   -0.14288E-04   -0.80974E-06  1540   0.346E-03    0.474E-03
RMM:  13    -0.574448119182E+03   -0.37763E-04   -0.75698E-06  1396   0.302E-03    0.403E-03
RMM:  14    -0.574448128673E+03   -0.94913E-05   -0.19029E-06  1576   0.134E-03    0.364E-03
RMM:  15    -0.574448145228E+03   -0.16555E-04   -0.20075E-06  1403   0.144E-03    0.167E-03
RMM:  16    -0.574448153527E+03   -0.82988E-05   -0.90063E-07  1464   0.992E-04    0.236E-03
RMM:  17    -0.574448158696E+03   -0.51689E-05   -0.11002E-06  1526   0.879E-04    0.803E-04
RMM:  18    -0.574448160691E+03   -0.19950E-05   -0.17381E-07  1370   0.423E-04    0.426E-04
RMM:  19    -0.574448161766E+03   -0.10758E-05   -0.56445E-08  1074   0.248E-04    0.337E-04
RMM:  20    -0.574448162632E+03   -0.86578E-06   -0.64278E-08  1066   0.191E-04    0.136E-04
RMM:  21    -0.574448162894E+03   -0.26188E-06   -0.25311E-08   952   0.163E-04    0.195E-04
RMM:  22    -0.574448163047E+03   -0.15278E-06   -0.13963E-08   894   0.119E-04    0.169E-04
RMM:  23    -0.574448163092E+03   -0.44696E-07   -0.14322E-08   897   0.112E-04    0.159E-04
RMM:  24    -0.574448163099E+03   -0.78471E-08   -0.48799E-09   809   0.842E-05
   3 F= -.57444816E+03 E0= -.57444816E+03  d E =-.394440E-01
       N       E                     dE             d eps       ncg     rms          rms(c)
DAV:   1    -0.574456780755E+03   -0.86177E-02   -0.69748E-01  1536   0.120E+00    0.277E-01
RMM:   2    -0.574458782026E+03   -0.20013E-02   -0.26259E-02  1383   0.283E-01    0.529E-02
RMM:   3    -0.574459537460E+03   -0.75543E-03   -0.92022E-03  1654   0.136E-01    0.142E-01
RMM:   4    -0.574459545527E+03   -0.80668E-05   -0.77561E-04  1481   0.423E-02    0.113E-01
RMM:   5    -0.574459461511E+03    0.84016E-04   -0.75476E-05  1515   0.136E-02    0.969E-02
RMM:   6    -0.574459348219E+03    0.11329E-03   -0.22292E-03  1534   0.396E-02    0.500E-02
RMM:   7    -0.574459361399E+03   -0.13180E-04   -0.17757E-04  1582   0.167E-02    0.625E-02
RMM:   8    -0.574459239223E+03    0.12218E-03   -0.18193E-04  1449   0.124E-02    0.319E-02
RMM:   9    -0.574459214243E+03    0.24980E-04   -0.25219E-04  1459   0.148E-02    0.100E-02
RMM:  10    -0.574459215707E+03   -0.14632E-05   -0.15268E-05  1575   0.616E-03    0.620E-03
RMM:  11    -0.574459221659E+03   -0.59525E-05   -0.13229E-05  1454   0.443E-03    0.869E-03
RMM:  12    -0.574459222365E+03   -0.70564E-06   -0.30910E-06  1513   0.187E-03    0.544E-03
RMM:  13    -0.574459225081E+03   -0.27163E-05   -0.56460E-06  1432   0.203E-03    0.101E-03
RMM:  14    -0.574459227118E+03   -0.20372E-05   -0.46373E-07  1462   0.927E-04    0.847E-04
RMM:  15    -0.574459232641E+03   -0.55229E-05   -0.60954E-07  1351   0.716E-04    0.791E-04
RMM:  16    -0.574459234763E+03   -0.21217E-05   -0.14568E-07  1246   0.357E-04    0.472E-04
RMM:  17    -0.574459236752E+03   -0.19893E-05   -0.28948E-07  1320   0.416E-04    0.527E-04
RMM:  18    -0.574459237791E+03   -0.10393E-05   -0.61928E-08  1103   0.234E-04    0.253E-04
RMM:  19    -0.574459238049E+03   -0.25792E-06   -0.24236E-08   961   0.144E-04    0.109E-04
RMM:  20    -0.574459238175E+03   -0.12598E-06   -0.99789E-09   866   0.100E-04    0.666E-05
RMM:  21    -0.574459238224E+03   -0.48633E-07   -0.67095E-09   764   0.791E-05    0.607E-05
RMM:  22    -0.574459238235E+03   -0.10670E-07   -0.32081E-09   712   0.614E-05    0.394E-05
RMM:  23    -0.574459238237E+03   -0.22083E-08   -0.16940E-09   530   0.442E-05
   4 F= -.57445924E+03 E0= -.57445924E+03  d E =-.110751E-01
       N       E                     dE             d eps       ncg     rms          rms(c)
DAV:   1    -0.574453879584E+03    0.53587E-02   -0.33131E+00  1496   0.259E+00    0.590E-01
RMM:   2    -0.574463329362E+03   -0.94498E-02   -0.12380E-01  1385   0.605E-01    0.114E-01
RMM:   3    -0.574466797769E+03   -0.34684E-02   -0.42377E-02  1647   0.290E-01    0.300E-01
RMM:   4    -0.574466850536E+03   -0.52767E-04   -0.38369E-03  1484   0.904E-02    0.237E-01
RMM:   5    -0.574466442340E+03    0.40820E-03   -0.36459E-04  1510   0.292E-02    0.200E-01
RMM:   6    -0.574466004878E+03    0.43746E-03   -0.10679E-02  1539   0.848E-02    0.112E-01
RMM:   7    -0.574465957394E+03    0.47484E-04   -0.58082E-04  1534   0.324E-02    0.124E-01
RMM:   8    -0.574465401839E+03    0.55555E-03   -0.12132E-03  1502   0.302E-02    0.439E-02
RMM:   9    -0.574465344973E+03    0.56867E-04   -0.39360E-04  1615   0.207E-02    0.195E-02
RMM:  10    -0.574465351946E+03   -0.69735E-05   -0.55240E-05  1558   0.890E-03    0.103E-02
RMM:  11    -0.574465386362E+03   -0.34416E-04   -0.76519E-05  1411   0.926E-03    0.244E-02
RMM:  12    -0.574465374615E+03    0.11747E-04   -0.45123E-05  1467   0.605E-03    0.772E-03
RMM:  13    -0.574465388405E+03   -0.13790E-04   -0.42167E-05  1579   0.560E-03    0.507E-03
RMM:  14    -0.574465400366E+03   -0.11961E-04   -0.63258E-06  1399   0.258E-03    0.107E-03
RMM:  15    -0.574465415304E+03   -0.14938E-04   -0.23446E-06  1439   0.153E-03    0.155E-03
RMM:  16    -0.574465422730E+03   -0.74258E-05   -0.89600E-07  1480   0.833E-04    0.817E-04
RMM:  17    -0.574465430608E+03   -0.78781E-05   -0.63190E-07  1317   0.595E-04    0.101E-03
RMM:  18    -0.574465432053E+03   -0.14456E-05   -0.15887E-07  1265   0.333E-04    0.563E-04
RMM:  19    -0.574465432900E+03   -0.84708E-06   -0.51950E-08  1036   0.210E-04    0.198E-04
RMM:  20    -0.574465433332E+03   -0.43137E-06   -0.32626E-08  1002   0.161E-04    0.259E-04
RMM:  21    -0.574465433483E+03   -0.15120E-06   -0.13374E-08   901   0.107E-04    0.594E-05
RMM:  22    -0.574465433538E+03   -0.55446E-07   -0.10989E-08   823   0.941E-05    0.147E-04
RMM:  23    -0.574465433545E+03   -0.69376E-08   -0.32920E-09   687   0.635E-05
   5 F= -.57446543E+03 E0= -.57446543E+03  d E =-.172704E-01
       N       E                     dE             d eps       ncg     rms          rms(c)
DAV:   1    -0.574465572661E+03   -0.13912E-03   -0.23727E-01  1632   0.685E-01    0.160E-01
RMM:   2    -0.574466243442E+03   -0.67078E-03   -0.88295E-03  1381   0.161E-01    0.305E-02
RMM:   3    -0.574466501398E+03   -0.25796E-03   -0.30909E-03  1661   0.778E-02    0.822E-02
RMM:   4    -0.574466507822E+03   -0.64239E-05   -0.28024E-04  1466   0.243E-02    0.658E-02
RMM:   5    -0.574466481901E+03    0.25922E-04   -0.25705E-05  1531   0.776E-03    0.575E-02
RMM:   6    -0.574466440864E+03    0.41037E-04   -0.74816E-04  1528   0.225E-02    0.292E-02
RMM:   7    -0.574466444240E+03   -0.33762E-05   -0.67985E-05  1565   0.999E-03    0.366E-02
RMM:   8    -0.574466401369E+03    0.42871E-04   -0.67864E-05  1495   0.733E-03    0.181E-02
RMM:   9    -0.574466389797E+03    0.11572E-04   -0.60390E-05  1492   0.741E-03    0.563E-03
RMM:  10    -0.574466390668E+03   -0.87125E-06   -0.58149E-06  1675   0.336E-03    0.301E-03
RMM:  11    -0.574466393697E+03   -0.30286E-05   -0.52979E-06  1385   0.258E-03    0.469E-03
RMM:  12    -0.574466394762E+03   -0.10649E-05   -0.92011E-07  1477   0.120E-03    0.290E-03
RMM:  13    -0.574466398070E+03   -0.33088E-05   -0.27187E-06  1468   0.131E-03    0.914E-04
RMM:  14    -0.574466400570E+03   -0.24993E-05   -0.16493E-07  1228   0.533E-04    0.528E-04
RMM:  15    -0.574466405836E+03   -0.52658E-05   -0.47942E-07  1365   0.555E-04    0.547E-04
RMM:  16    -0.574466407302E+03   -0.14662E-05   -0.96003E-08  1159   0.265E-04    0.230E-04
RMM:  17    -0.574466408316E+03   -0.10147E-05   -0.12161E-07  1222   0.272E-04    0.307E-04
RMM:  18    -0.574466408718E+03   -0.40122E-06   -0.24746E-08   948   0.147E-04    0.195E-04
RMM:  19    -0.574466408802E+03   -0.84667E-07   -0.10540E-08   841   0.100E-04    0.653E-05
RMM:  20    -0.574466408849E+03   -0.46999E-07   -0.60517E-09   765   0.797E-05    0.496E-05
RMM:  21    -0.574466408865E+03   -0.15301E-07   -0.44295E-09   732   0.701E-05    0.207E-05
RMM:  22    -0.574466408869E+03   -0.44056E-08   -0.21595E-09   651   0.554E-05
   6 F= -.57446641E+03 E0= -.57446641E+03  d E =-.182458E-01
       N       E                     dE             d eps       ncg     rms          rms(c)
DAV:   1    -0.574469104552E+03   -0.26957E-02   -0.28257E+00  1520   0.256E+00    0.322E-01
RMM:   2    -0.574474169643E+03   -0.50651E-02   -0.58221E-02  1380   0.414E-01    0.777E-02
RMM:   3    -0.574475143178E+03   -0.97354E-03   -0.12537E-02  1571   0.181E-01    0.129E-01
RMM:   4    -0.574475234562E+03   -0.91383E-04   -0.19352E-03  1551   0.656E-02    0.103E-01
RMM:   5    -0.574475040909E+03    0.19365E-03   -0.34980E-04  1390   0.279E-02    0.622E-02
RMM:   6    -0.574474986980E+03    0.53929E-04   -0.14556E-03  1424   0.416E-02    0.416E-02
RMM:   7    -0.574474945025E+03    0.41955E-04   -0.12807E-04  1419   0.165E-02    0.299E-02
RMM:   8    -0.574474935266E+03    0.97590E-05   -0.32527E-04  1434   0.160E-02    0.116E-02
RMM:   9    -0.574474930382E+03    0.48840E-05   -0.18776E-05  1485   0.638E-03    0.623E-03
RMM:  10    -0.574474933054E+03   -0.26725E-05   -0.11441E-05  1429   0.336E-03    0.303E-03
RMM:  11    -0.574474938404E+03   -0.53494E-05   -0.37807E-06  1629   0.183E-03    0.235E-03
RMM:  12    -0.574474942670E+03   -0.42659E-05   -0.96111E-07  1499   0.945E-04    0.837E-04
RMM:  13    -0.574474948442E+03   -0.57720E-05   -0.41482E-07  1453   0.556E-04    0.895E-04
RMM:  14    -0.574474951545E+03   -0.31028E-05   -0.16258E-07  1216   0.334E-04    0.801E-04
RMM:  15    -0.574474954918E+03   -0.33733E-05   -0.16705E-07  1254   0.355E-04    0.360E-04
RMM:  16    -0.574474956005E+03   -0.10872E-05   -0.21073E-07  1302   0.376E-04    0.574E-04
RMM:  17    -0.574474956676E+03   -0.67123E-06   -0.62683E-08  1116   0.237E-04    0.328E-04
RMM:  18    -0.574474956779E+03   -0.10246E-06   -0.22570E-08   949   0.147E-04    0.149E-04
RMM:  19    -0.574474956823E+03   -0.44511E-07   -0.15586E-08   878   0.126E-04    0.625E-05
RMM:  20    -0.574474956864E+03   -0.41229E-07   -0.65288E-09   829   0.922E-05    0.872E-05
RMM:  21    -0.574474956877E+03   -0.12329E-07   -0.24766E-09   693   0.563E-05    0.373E-05
RMM:  22    -0.574474956884E+03   -0.70431E-08   -0.20729E-09   632   0.491E-05
   7 F= -.57447496E+03 E0= -.57447496E+03  d E =-.854801E-02
       N       E                     dE             d eps       ncg     rms          rms(c)
DAV:   1    -0.574434798703E+03    0.40158E-01   -0.25423E+01  1472   0.769E+00    0.971E-01
RMM:   2    -0.574480949093E+03   -0.46150E-01   -0.53321E-01  1383   0.125E+00    0.241E-01
RMM:   3    -0.574489476061E+03   -0.85270E-02   -0.11197E-01  1581   0.543E-01    0.389E-01
RMM:   4    -0.574490091603E+03   -0.61554E-03   -0.16610E-02  1537   0.193E-01    0.301E-01
RMM:   5    -0.574488101485E+03    0.19901E-02   -0.40727E-03  1378   0.944E-02    0.147E-01
RMM:   6    -0.574487782562E+03    0.31892E-03   -0.83072E-03  1398   0.106E-01    0.947E-02
RMM:   7    -0.574487513478E+03    0.26908E-03   -0.91824E-04  1461   0.432E-02    0.564E-02
RMM:   8    -0.574487501678E+03    0.11800E-04   -0.14217E-03  1444   0.379E-02    0.303E-02
RMM:   9    -0.574487469876E+03    0.31802E-04   -0.10492E-04  1439   0.154E-02    0.150E-02
RMM:  10    -0.574487490013E+03   -0.20137E-04   -0.86340E-05  1393   0.970E-03    0.762E-03
RMM:  11    -0.574487521821E+03   -0.31808E-04   -0.25355E-05  1624   0.513E-03    0.687E-03
RMM:  12    -0.574487540753E+03   -0.18932E-04   -0.68247E-06  1491   0.269E-03    0.278E-03
RMM:  13    -0.574487580478E+03   -0.39725E-04   -0.37662E-06  1510   0.179E-03    0.327E-03
RMM:  14    -0.574487592364E+03   -0.11886E-04   -0.88021E-07  1507   0.822E-04    0.202E-03
RMM:  15    -0.574487613423E+03   -0.21059E-04   -0.10717E-06  1398   0.893E-04    0.117E-03
RMM:  16    -0.574487620859E+03   -0.74362E-05   -0.70315E-07  1392   0.726E-04    0.136E-03
RMM:  17    -0.574487624257E+03   -0.33978E-05   -0.43813E-07  1413   0.602E-04    0.916E-04
RMM:  18    -0.574487625320E+03   -0.10629E-05   -0.15417E-07  1354   0.368E-04    0.420E-04
RMM:  19    -0.574487625785E+03   -0.46512E-06   -0.14625E-07  1269   0.345E-04    0.264E-04
RMM:  20    -0.574487626036E+03   -0.25090E-06   -0.31632E-08   982   0.182E-04    0.255E-04
RMM:  21    -0.574487626138E+03   -0.10237E-06   -0.11702E-08   892   0.113E-04    0.747E-05
RMM:  22    -0.574487626180E+03   -0.41713E-07   -0.51531E-09   783   0.784E-05    0.702E-05
RMM:  23    -0.574487626199E+03   -0.19169E-07   -0.41792E-09   673   0.582E-05    0.362E-05
RMM:  24    -0.574487626202E+03   -0.25902E-08   -0.17609E-09   548   0.459E-05
   8 F= -.57448763E+03 E0= -.57448763E+03  d E =-.212173E-01
       N       E                     dE             d eps       ncg     rms          rms(c)
DAV:   1    -0.574485406990E+03    0.22192E-02   -0.65980E+00  1448   0.395E+00    0.450E-01
RMM:   2    -0.574496285164E+03   -0.10878E-01   -0.12458E-01  1378   0.606E-01    0.113E-01
RMM:   3    -0.574497736745E+03   -0.14516E-02   -0.22786E-02  1570   0.262E-01    0.167E-01
RMM:   4    -0.574497874236E+03   -0.13749E-03   -0.39792E-03  1520   0.976E-02    0.132E-01
RMM:   5    -0.574497281064E+03    0.59317E-03   -0.18074E-03  1376   0.605E-02    0.367E-02
RMM:   6    -0.574497250751E+03    0.30313E-04   -0.13370E-03  1376   0.478E-02    0.522E-02
RMM:   7    -0.574497162189E+03    0.88562E-04   -0.26213E-04  1376   0.229E-02    0.135E-02
RMM:   8    -0.574497175079E+03   -0.12890E-04   -0.29826E-04  1520   0.185E-02    0.134E-02
RMM:   9    -0.574497172973E+03    0.21067E-05   -0.29526E-05  1500   0.872E-03    0.996E-03
RMM:  10    -0.574497178389E+03   -0.54162E-05   -0.85016E-06  1465   0.440E-03    0.104E-02
RMM:  11    -0.574497182542E+03   -0.41535E-05   -0.33495E-05  1437   0.547E-03    0.422E-03
RMM:  12    -0.574497183272E+03   -0.72943E-06   -0.38034E-06  1554   0.253E-03    0.262E-03
RMM:  13    -0.574497183737E+03   -0.46565E-06   -0.83534E-07  1412   0.116E-03    0.138E-03
RMM:  14    -0.574497186855E+03   -0.31176E-05   -0.39947E-07  1430   0.780E-04    0.109E-03
RMM:  15    -0.574497188265E+03   -0.14098E-05   -0.32244E-07  1469   0.538E-04    0.759E-04
RMM:  16    -0.574497189173E+03   -0.90843E-06   -0.96242E-08  1265   0.373E-04    0.343E-04
RMM:  17    -0.574497190043E+03   -0.86941E-06   -0.44451E-08  1053   0.218E-04    0.565E-04
RMM:  18    -0.574497190664E+03   -0.62179E-06   -0.92170E-08  1213   0.263E-04    0.221E-04
RMM:  19    -0.574497190780E+03   -0.11586E-06   -0.13534E-08   883   0.140E-04    0.182E-04
RMM:  20    -0.574497190824E+03   -0.44089E-07   -0.12691E-08   894   0.107E-04    0.147E-04
RMM:  21    -0.574497190827E+03   -0.27940E-08   -0.40350E-09   758   0.738E-05
   9 F= -.57449719E+03 E0= -.57449719E+03  d E =-.956463E-02
       N       E                     dE             d eps       ncg     rms          rms(c)
DAV:   1    -0.574488934640E+03    0.82562E-02   -0.62271E+00  1456   0.386E+00    0.439E-01
RMM:   2    -0.574499321599E+03   -0.10387E-01   -0.11933E-01  1377   0.593E-01    0.109E-01
RMM:   3    -0.574500753097E+03   -0.14315E-02   -0.22074E-02  1580   0.255E-01    0.161E-01
RMM:   4    -0.574500874394E+03   -0.12130E-03   -0.37343E-03  1525   0.942E-02    0.129E-01
RMM:   5    -0.574500317639E+03    0.55675E-03   -0.16384E-03  1376   0.577E-02    0.365E-02
RMM:   6    -0.574500283118E+03    0.34521E-04   -0.12979E-03  1377   0.468E-02    0.504E-02
RMM:   7    -0.574500200783E+03    0.82335E-04   -0.29022E-04  1376   0.231E-02    0.119E-02
RMM:   8    -0.574500212876E+03   -0.12093E-04   -0.25977E-04  1542   0.173E-02    0.135E-02
RMM:   9    -0.574500210703E+03    0.21733E-05   -0.27226E-05  1527   0.787E-03    0.105E-02
RMM:  10    -0.574500215059E+03   -0.43561E-05   -0.74162E-06  1444   0.393E-03    0.106E-02
RMM:  11    -0.574500218984E+03   -0.39246E-05   -0.38300E-05  1481   0.565E-03    0.485E-03
RMM:  12    -0.574500219537E+03   -0.55274E-06   -0.37318E-06  1556   0.245E-03    0.302E-03
RMM:  13    -0.574500219826E+03   -0.28985E-06   -0.11402E-06  1422   0.121E-03    0.171E-03
RMM:  14    -0.574500222538E+03   -0.27116E-05   -0.50710E-07  1464   0.838E-04    0.870E-04
RMM:  15    -0.574500224253E+03   -0.17150E-05   -0.21150E-07  1445   0.468E-04    0.626E-04
RMM:  16    -0.574500225417E+03   -0.11638E-05   -0.15675E-07  1223   0.380E-04    0.531E-04
RMM:  17    -0.574500226097E+03   -0.67980E-06   -0.33811E-08   993   0.237E-04    0.454E-04
RMM:  18    -0.574500226934E+03   -0.83727E-06   -0.10255E-07  1256   0.281E-04    0.473E-04
RMM:  19    -0.574500227083E+03   -0.14954E-06   -0.55560E-08  1107   0.239E-04    0.388E-04
RMM:  20    -0.574500227105E+03   -0.21329E-07   -0.17967E-08   918   0.154E-04    0.146E-04
RMM:  21    -0.574500227113E+03   -0.81454E-08   -0.13617E-08   878   0.123E-04
  10 F= -.57450023E+03 E0= -.57450023E+03  d E =-.126009E-01
       N       E                     dE             d eps       ncg     rms          rms(c)
DAV:   1    -0.574499818801E+03    0.40830E-03   -0.34122E+00  1464   0.275E+00    0.451E-01
RMM:   2    -0.574506742520E+03   -0.69237E-02   -0.79018E-02  1378   0.489E-01    0.866E-02
RMM:   3    -0.574508636365E+03   -0.18938E-02   -0.20989E-02  1627   0.222E-01    0.202E-01
RMM:   4    -0.574508718384E+03   -0.82019E-04   -0.21880E-03  1498   0.727E-02    0.160E-01
RMM:   5    -0.574508588185E+03    0.13020E-03   -0.26677E-04  1504   0.242E-02    0.137E-01
RMM:   6    -0.574508419509E+03    0.16868E-03   -0.34350E-03  1581   0.563E-02    0.546E-02
RMM:   7    -0.574508479852E+03   -0.60343E-04   -0.24368E-04  1563   0.219E-02    0.649E-02
RMM:   8    -0.574508333085E+03    0.14677E-03   -0.24268E-04  1458   0.155E-02    0.331E-02
RMM:   9    -0.574508315224E+03    0.17861E-04   -0.23230E-04  1451   0.144E-02    0.137E-02
RMM:  10    -0.574508317730E+03   -0.25061E-05   -0.29459E-05  1558   0.761E-03    0.544E-03
RMM:  11    -0.574508320649E+03   -0.29188E-05   -0.60161E-06  1543   0.312E-03    0.318E-03
RMM:  12    -0.574508323537E+03   -0.28885E-05   -0.21402E-06  1409   0.174E-03    0.142E-03
RMM:  13    -0.574508325035E+03   -0.14976E-05   -0.71050E-07  1595   0.109E-03    0.131E-03
RMM:  14    -0.574508325576E+03   -0.54089E-06   -0.11830E-07  1361   0.457E-04    0.654E-04
RMM:  15    -0.574508327610E+03   -0.20340E-05   -0.20560E-07  1321   0.497E-04    0.681E-04
RMM:  16    -0.574508328273E+03   -0.66299E-06   -0.43838E-08  1008   0.227E-04    0.512E-04
RMM:  17    -0.574508328780E+03   -0.50747E-06   -0.34375E-08  1022   0.203E-04    0.130E-04
RMM:  18    -0.574508329186E+03   -0.40544E-06   -0.40849E-08  1058   0.183E-04    0.211E-04
RMM:  19    -0.574508329291E+03   -0.10564E-06   -0.23003E-08   950   0.146E-04    0.791E-05
RMM:  20    -0.574508329311E+03   -0.19885E-07   -0.51678E-09   795   0.842E-05    0.461E-05
RMM:  21    -0.574508329312E+03   -0.12260E-08   -0.20190E-09   614   0.498E-05
  11 F= -.57450833E+03 E0= -.57450833E+03  d E =-.810220E-02
       N       E                     dE             d eps       ncg     rms          rms(c)
DAV:   1    -0.574442284604E+03    0.66045E-01   -0.30693E+01  1432   0.824E+00    0.136E+00
RMM:   2    -0.574505461760E+03   -0.63177E-01   -0.72335E-01  1380   0.147E+00    0.269E-01
RMM:   3    -0.574522376151E+03   -0.16914E-01   -0.18912E-01  1630   0.667E-01    0.604E-01
RMM:   4    -0.574522885001E+03   -0.50885E-03   -0.19395E-02  1494   0.216E-01    0.465E-01
RMM:   5    -0.574521057036E+03    0.18280E-02   -0.27089E-03  1431   0.791E-02    0.351E-01
RMM:   6    -0.574520229058E+03    0.82798E-03   -0.24809E-02  1581   0.156E-01    0.146E-01
RMM:   7    -0.574520165884E+03    0.63173E-04   -0.11381E-03  1453   0.532E-02    0.147E-01
RMM:   8    -0.574519400006E+03    0.76588E-03   -0.46109E-03  1555   0.599E-02    0.247E-02
RMM:   9    -0.574519415489E+03   -0.15483E-04   -0.18402E-04  1458   0.222E-02    0.301E-02
RMM:  10    -0.574519426595E+03   -0.11106E-04   -0.54897E-05  1470   0.115E-02    0.648E-03
RMM:  11    -0.574519452006E+03   -0.25411E-04   -0.47736E-05  1437   0.858E-03    0.120E-02
RMM:  12    -0.574519458284E+03   -0.62774E-05   -0.88306E-06  1380   0.412E-03    0.412E-03
RMM:  13    -0.574519467078E+03   -0.87943E-05   -0.66304E-06  1462   0.282E-03    0.132E-03
RMM:  14    -0.574519474698E+03   -0.76198E-05   -0.14494E-06  1636   0.145E-03    0.103E-03
RMM:  15    -0.574519479214E+03   -0.45159E-05   -0.33902E-07  1398   0.695E-04    0.917E-04
RMM:  16    -0.574519486267E+03   -0.70531E-05   -0.38852E-07  1302   0.500E-04    0.603E-04
RMM:  17    -0.574519487312E+03   -0.10451E-05   -0.10341E-07  1107   0.264E-04    0.441E-04
RMM:  18    -0.574519488295E+03   -0.98289E-06   -0.15402E-07  1225   0.311E-04    0.192E-04
RMM:  19    -0.574519488357E+03   -0.62690E-07   -0.30844E-08  1016   0.195E-04    0.335E-04
RMM:  20    -0.574519488371E+03   -0.14144E-07   -0.10340E-08   868   0.119E-04    0.120E-04
RMM:  21    -0.574519488381E+03   -0.93351E-08   -0.10679E-08   839   0.106E-04
  12 F= -.57451949E+03 E0= -.57451949E+03  d E =-.192613E-01
       N       E                     dE             d eps       ncg     rms          rms(c)
DAV:   1    -0.574515387043E+03    0.41013E-02   -0.45170E+00  1432   0.322E+00    0.567E-01
RMM:   2    -0.574525587022E+03   -0.10200E-01   -0.11761E-01  1380   0.603E-01    0.102E-01
RMM:   3    -0.574528655314E+03   -0.30683E-02   -0.33549E-02  1644   0.280E-01    0.266E-01
RMM:   4    -0.574528743446E+03   -0.88132E-04   -0.31704E-03  1485   0.908E-02    0.211E-01
RMM:   5    -0.574528497504E+03    0.24594E-03   -0.35495E-04  1497   0.306E-02    0.178E-01
RMM:   6    -0.574528263415E+03    0.23409E-03   -0.58015E-03  1571   0.720E-02    0.736E-02
RMM:   7    -0.574528319247E+03   -0.55832E-04   -0.33339E-04  1483   0.269E-02    0.810E-02
RMM:   8    -0.574528083776E+03    0.23547E-03   -0.40300E-04  1417   0.197E-02    0.374E-02
RMM:   9    -0.574528065659E+03    0.18117E-04   -0.34211E-04  1500   0.178E-02    0.131E-02
RMM:  10    -0.574528069208E+03   -0.35493E-05   -0.23359E-05  1524   0.770E-03    0.696E-03
RMM:  11    -0.574528074018E+03   -0.48100E-05   -0.10583E-05  1527   0.412E-03    0.372E-03
RMM:  12    -0.574528079051E+03   -0.50328E-05   -0.14444E-06  1405   0.169E-03    0.343E-03
RMM:  13    -0.574528081292E+03   -0.22412E-05   -0.28143E-06  1498   0.163E-03    0.118E-03
RMM:  14    -0.574528083184E+03   -0.18923E-05   -0.31671E-07  1383   0.842E-04    0.436E-04
RMM:  15    -0.574528085161E+03   -0.19768E-05   -0.14590E-07  1278   0.417E-04    0.496E-04
RMM:  16    -0.574528085896E+03   -0.73437E-06   -0.47673E-08  1002   0.232E-04    0.229E-04
RMM:  17    -0.574528086440E+03   -0.54450E-06   -0.35511E-08   982   0.185E-04    0.168E-04
RMM:  18    -0.574528086730E+03   -0.28958E-06   -0.22559E-08   949   0.131E-04    0.820E-05
RMM:  19    -0.574528086814E+03   -0.83997E-07   -0.98127E-09   878   0.892E-05    0.169E-04
RMM:  20    -0.574528086832E+03   -0.18354E-07   -0.48102E-09   811   0.755E-05    0.121E-04
RMM:  21    -0.574528086841E+03   -0.84583E-08   -0.34078E-09   779   0.664E-05
  13 F= -.57452809E+03 E0= -.57452809E+03  d E =-.859846E-02
       N       E                     dE             d eps       ncg     rms          rms(c)
DAV:   1    -0.574507338617E+03    0.20748E-01   -0.10243E+01  1432   0.485E+00    0.857E-01
RMM:   2    -0.574530600852E+03   -0.23262E-01   -0.26847E-01  1382   0.909E-01    0.155E-01
RMM:   3    -0.574537526890E+03   -0.69260E-02   -0.75883E-02  1639   0.421E-01    0.403E-01
RMM:   4    -0.574537686523E+03   -0.15963E-03   -0.70741E-03  1486   0.135E-01    0.316E-01
RMM:   5    -0.574537048203E+03    0.63832E-03   -0.81157E-04  1467   0.468E-02    0.257E-01
RMM:   6    -0.574536647930E+03    0.40027E-03   -0.12862E-02  1570   0.108E-01    0.110E-01
RMM:   7    -0.574536660419E+03   -0.12490E-04   -0.58183E-04  1401   0.380E-02    0.114E-01
RMM:   8    -0.574536169307E+03    0.49111E-03   -0.14785E-03  1499   0.348E-02    0.325E-02
RMM:   9    -0.574536179574E+03   -0.10268E-04   -0.26974E-04  1751   0.188E-02    0.178E-02
RMM:  10    -0.574536183414E+03   -0.38394E-05   -0.99978E-06  1385   0.513E-03    0.872E-03
RMM:  11    -0.574536196730E+03   -0.13316E-04   -0.15330E-05  1378   0.518E-03    0.657E-03
RMM:  12    -0.574536202860E+03   -0.61302E-05   -0.44226E-06  1449   0.253E-03    0.158E-03
RMM:  13    -0.574536207822E+03   -0.49614E-05   -0.30707E-06  1540   0.172E-03    0.144E-03
RMM:  14    -0.574536211244E+03   -0.34225E-05   -0.36246E-07  1390   0.867E-04    0.526E-04
RMM:  15    -0.574536214252E+03   -0.30074E-05   -0.41465E-07  1357   0.634E-04    0.701E-04
RMM:  16    -0.574536216006E+03   -0.17548E-05   -0.14167E-07  1233   0.343E-04    0.394E-04
RMM:  17    -0.574536216753E+03   -0.74623E-06   -0.66644E-08  1122   0.242E-04    0.285E-04
RMM:  18    -0.574536217036E+03   -0.28327E-06   -0.32976E-08   958   0.164E-04    0.194E-04
RMM:  19    -0.574536217091E+03   -0.55283E-07   -0.17583E-08   924   0.128E-04    0.148E-04
RMM:  20    -0.574536217099E+03   -0.79526E-08   -0.47104E-09   811   0.920E-05
  14 F= -.57453622E+03 E0= -.57453622E+03  d E =-.167287E-01
       N       E                     dE             d eps       ncg     rms          rms(c)
DAV:   1    -0.574419675955E+03    0.11654E+00   -0.40956E+01  1432   0.970E+00    0.173E+00
RMM:   2    -0.574513981075E+03   -0.94305E-01   -0.10918E+00  1387   0.183E+00    0.319E-01
RMM:   3    -0.574541578209E+03   -0.27597E-01   -0.30280E-01  1635   0.842E-01    0.804E-01
RMM:   4    -0.574541882208E+03   -0.30400E-03   -0.27501E-02  1487   0.269E-01    0.616E-01
RMM:   5    -0.574538704064E+03    0.31781E-02   -0.38584E-03  1402   0.101E-01    0.459E-01
RMM:   6    -0.574537618199E+03    0.10859E-02   -0.41906E-02  1572   0.202E-01    0.198E-01
RMM:   7    -0.574537157318E+03    0.46088E-03   -0.18626E-03  1461   0.672E-02    0.183E-01
RMM:   8    -0.574536114640E+03    0.10427E-02   -0.86134E-03  1563   0.821E-02    0.322E-02
RMM:   9    -0.574536089909E+03    0.24731E-04   -0.34536E-04  1454   0.295E-02    0.343E-02
RMM:  10    -0.574536111018E+03   -0.21109E-04   -0.71441E-05  1444   0.135E-02    0.103E-02
RMM:  11    -0.574536153800E+03   -0.42782E-04   -0.50502E-05  1498   0.981E-03    0.200E-02
RMM:  12    -0.574536158607E+03   -0.48065E-05   -0.97697E-06  1442   0.402E-03    0.966E-03
RMM:  13    -0.574536178329E+03   -0.19722E-04   -0.20113E-05  1396   0.458E-03    0.344E-03
RMM:  14    -0.574536181451E+03   -0.31216E-05   -0.24389E-06  1575   0.226E-03    0.113E-03
RMM:  15    -0.574536192390E+03   -0.10940E-04   -0.10785E-06  1598   0.121E-03    0.129E-03
RMM:  16    -0.574536196303E+03   -0.39128E-05   -0.21108E-07  1369   0.444E-04    0.145E-03
RMM:  17    -0.574536200883E+03   -0.45801E-05   -0.61041E-07  1376   0.722E-04    0.430E-04
RMM:  18    -0.574536202543E+03   -0.16593E-05   -0.32190E-07  1412   0.541E-04    0.907E-04
RMM:  19    -0.574536203311E+03   -0.76812E-06   -0.64505E-08  1092   0.271E-04    0.776E-04
RMM:  20    -0.574536203504E+03   -0.19335E-06   -0.49825E-08  1075   0.228E-04    0.275E-04
RMM:  21    -0.574536203568E+03   -0.64028E-07   -0.52568E-08  1053   0.215E-04    0.132E-04
RMM:  22    -0.574536203600E+03   -0.32054E-07   -0.59763E-09   813   0.115E-04    0.667E-05
RMM:  23    -0.574536203630E+03   -0.30119E-07   -0.35149E-09   763   0.702E-05    0.119E-04
RMM:  24    -0.574536203631E+03   -0.11387E-08   -0.20737E-09   648   0.549E-05
  15 F= -.57453620E+03 E0= -.57453620E+03  d E =-.167153E-01
       N       E                     dE             d eps       ncg     rms          rms(c)
DAV:   1    -0.574508964264E+03    0.27239E-01   -0.10642E+01  1504   0.495E+00    0.871E-01
RMM:   2    -0.574533253823E+03   -0.24290E-01   -0.27883E-01  1384   0.926E-01    0.151E-01
RMM:   3    -0.574540317460E+03   -0.70636E-02   -0.77234E-02  1615   0.429E-01    0.403E-01
RMM:   4    -0.574540618085E+03   -0.30063E-03   -0.77986E-03  1510   0.143E-01    0.326E-01
RMM:   5    -0.574540145669E+03    0.47242E-03   -0.82806E-04  1502   0.464E-02    0.285E-01
RMM:   6    -0.574539651454E+03    0.49421E-03   -0.15842E-02  1562   0.118E-01    0.125E-01
RMM:   7    -0.574539828231E+03   -0.17678E-03   -0.86143E-04  1494   0.436E-02    0.139E-01
RMM:   8    -0.574539177650E+03    0.65058E-03   -0.82272E-04  1425   0.286E-02    0.782E-02
RMM:   9    -0.574539043248E+03    0.13440E-03   -0.14854E-03  1499   0.341E-02    0.193E-02
RMM:  10    -0.574539054819E+03   -0.11571E-04   -0.67117E-05  1518   0.142E-02    0.903E-03
RMM:  11    -0.574539078705E+03   -0.23885E-04   -0.68705E-05  1544   0.936E-03    0.141E-02
RMM:  12    -0.574539082900E+03   -0.41954E-05   -0.14127E-05  1413   0.414E-03    0.760E-03
RMM:  13    -0.574539094426E+03   -0.11525E-04   -0.25752E-05  1431   0.448E-03    0.340E-03
RMM:  14    -0.574539100356E+03   -0.59300E-05   -0.20666E-06  1517   0.219E-03    0.215E-03
RMM:  15    -0.574539106863E+03   -0.65070E-05   -0.58368E-07  1410   0.110E-03    0.155E-03
RMM:  16    -0.574539115126E+03   -0.82636E-05   -0.80300E-07  1393   0.819E-04    0.815E-04
RMM:  17    -0.574539117148E+03   -0.20214E-05   -0.37990E-07  1473   0.542E-04    0.325E-04
RMM:  18    -0.574539118579E+03   -0.14310E-05   -0.22539E-07  1359   0.437E-04    0.106E-03
RMM:  19    -0.574539118675E+03   -0.95813E-07   -0.36462E-08  1051   0.210E-04    0.611E-04
RMM:  20    -0.574539118829E+03   -0.15414E-06   -0.49192E-08  1082   0.211E-04    0.269E-04
RMM:  21    -0.574539118854E+03   -0.25422E-07   -0.99079E-09   842   0.124E-04    0.218E-04
RMM:  22    -0.574539118862E+03   -0.82291E-08   -0.63279E-09   855   0.101E-04
  16 F= -.57453912E+03 E0= -.57453912E+03  d E =-.196305E-01
       N       E                     dE             d eps       ncg     rms          rms(c)
DAV:   1    -0.574526955391E+03    0.12163E-01   -0.58606E+00  1464   0.374E+00    0.693E-01
RMM:   2    -0.574542484790E+03   -0.15529E-01   -0.18233E-01  1384   0.769E-01    0.126E-01
RMM:   3    -0.574548073002E+03   -0.55882E-02   -0.59382E-02  1656   0.367E-01    0.338E-01
RMM:   4    -0.574548223891E+03   -0.15089E-03   -0.51224E-03  1479   0.115E-01    0.271E-01
RMM:   5    -0.574547932564E+03    0.29133E-03   -0.55820E-04  1507   0.390E-02    0.245E-01
RMM:   6    -0.574547444448E+03    0.48812E-03   -0.10759E-02  1562   0.960E-02    0.104E-01
RMM:   7    -0.574547770049E+03   -0.32560E-03   -0.95763E-04  1547   0.413E-02    0.133E-01
RMM:   8    -0.574547187478E+03    0.58257E-03   -0.84289E-04  1465   0.269E-02    0.743E-02
RMM:   9    -0.574547054409E+03    0.13307E-03   -0.10069E-03  1492   0.282E-02    0.255E-02
RMM:  10    -0.574547057208E+03   -0.27993E-05   -0.91592E-05  1630   0.137E-02    0.108E-02
RMM:  11    -0.574547065343E+03   -0.81353E-05   -0.34815E-05  1430   0.712E-03    0.907E-03
RMM:  12    -0.574547070035E+03   -0.46922E-05   -0.10523E-05  1456   0.387E-03    0.310E-03
RMM:  13    -0.574547076826E+03   -0.67903E-05   -0.12269E-05  1472   0.319E-03    0.465E-03
RMM:  14    -0.574547081499E+03   -0.46737E-05   -0.28022E-06  1397   0.199E-03    0.151E-03
RMM:  15    -0.574547084978E+03   -0.34791E-05   -0.19334E-06  1545   0.134E-03    0.999E-04
RMM:  16    -0.574547088684E+03   -0.37050E-05   -0.92993E-07  1579   0.922E-04    0.186E-03
RMM:  17    -0.574547090072E+03   -0.13882E-05   -0.41534E-07  1332   0.593E-04    0.417E-04
RMM:  18    -0.574547091109E+03   -0.10371E-05   -0.13290E-07  1298   0.380E-04    0.699E-04
RMM:  19    -0.574547091374E+03   -0.26478E-06   -0.61004E-08  1183   0.250E-04    0.472E-04
RMM:  20    -0.574547091505E+03   -0.13140E-06   -0.25975E-08   968   0.180E-04    0.281E-04
RMM:  21    -0.574547091628E+03   -0.12296E-06   -0.10631E-08   879   0.118E-04    0.126E-04
RMM:  22    -0.574547091716E+03   -0.88301E-07   -0.62910E-09   843   0.869E-05    0.113E-04
RMM:  23    -0.574547091737E+03   -0.20536E-07   -0.46743E-09   790   0.793E-05    0.820E-05
RMM:  24    -0.574547091773E+03   -0.36212E-07   -0.40721E-09   790   0.656E-05    0.463E-05
RMM:  25    -0.574547091777E+03   -0.37799E-08   -0.13423E-09   532   0.436E-05
  17 F= -.57454709E+03 E0= -.57454709E+03  d E =-.797291E-02
       N       E                     dE             d eps       ncg     rms          rms(c)
DAV:   1    -0.574543579407E+03    0.35124E-02   -0.11878E+00  1424   0.169E+00    0.313E-01
RMM:   2    -0.574546724660E+03   -0.31453E-02   -0.36926E-02  1384   0.347E-01    0.567E-02
RMM:   3    -0.574547859716E+03   -0.11351E-02   -0.12062E-02  1654   0.165E-01    0.153E-01
RMM:   4    -0.574547889517E+03   -0.29800E-04   -0.10348E-03  1480   0.518E-02    0.123E-01
RMM:   5    -0.574547832066E+03    0.57450E-04   -0.11391E-04  1509   0.177E-02    0.111E-01
RMM:   6    -0.574547731937E+03    0.10013E-03   -0.22391E-03  1555   0.438E-02    0.478E-02
RMM:   7    -0.574547796858E+03   -0.64922E-04   -0.19666E-04  1542   0.188E-02    0.603E-02
RMM:   8    -0.574547675805E+03    0.12105E-03   -0.18165E-04  1475   0.124E-02    0.328E-02
RMM:   9    -0.574547650635E+03    0.25171E-04   -0.16491E-04  1482   0.116E-02    0.129E-02
RMM:  10    -0.574547650600E+03    0.34121E-07   -0.29871E-05  1616   0.673E-03    0.462E-03
RMM:  11    -0.574547652337E+03   -0.17367E-05   -0.53262E-06  1434   0.294E-03    0.434E-03
RMM:  12    -0.574547653822E+03   -0.14852E-05   -0.26108E-06  1452   0.184E-03    0.162E-03
RMM:  13    -0.574547655343E+03   -0.15206E-05   -0.10836E-06  1638   0.106E-03    0.138E-03
RMM:  14    -0.574547656630E+03   -0.12869E-05   -0.36333E-07  1401   0.662E-04    0.433E-04
RMM:  15    -0.574547657554E+03   -0.92368E-06   -0.27247E-07  1348   0.517E-04    0.603E-04
RMM:  16    -0.574547658525E+03   -0.97094E-06   -0.90523E-08  1170   0.302E-04    0.496E-04
RMM:  17    -0.574547658777E+03   -0.25255E-06   -0.28658E-08   973   0.173E-04    0.200E-04
RMM:  18    -0.574547659015E+03   -0.23760E-06   -0.22750E-08   933   0.146E-04    0.332E-04
RMM:  19    -0.574547659087E+03   -0.72745E-07   -0.19351E-08   922   0.136E-04    0.146E-04
RMM:  20    -0.574547659113E+03   -0.25677E-07   -0.77633E-09   816   0.111E-04    0.103E-04
RMM:  21    -0.574547659140E+03   -0.26732E-07   -0.49333E-09   799   0.837E-05    0.610E-05
RMM:  22    -0.574547659154E+03   -0.13741E-07   -0.20817E-09   719   0.558E-05    0.606E-05
RMM:  23    -0.574547659162E+03   -0.87857E-08   -0.14081E-09   643   0.462E-05
  18 F= -.57454766E+03 E0= -.57454766E+03  d E =-.854030E-02
       N       E                     dE             d eps       ncg     rms          rms(c)
DAV:   1    -0.574547373802E+03    0.28535E-03   -0.10662E+00  1448   0.164E+00    0.270E-01
RMM:   2    -0.574550019304E+03   -0.26455E-02   -0.33108E-02  1378   0.342E-01    0.541E-02
RMM:   3    -0.574551060649E+03   -0.10413E-02   -0.11927E-02  1665   0.162E-01    0.136E-01
RMM:   4    -0.574551074274E+03   -0.13626E-04   -0.93685E-04  1482   0.489E-02    0.106E-01
RMM:   5    -0.574550998701E+03    0.75574E-04   -0.11423E-04  1485   0.177E-02    0.921E-02
RMM:   6    -0.574550999954E+03   -0.12534E-05   -0.27649E-03  1575   0.494E-02    0.588E-02
RMM:   7    -0.574550995369E+03    0.45854E-05   -0.95364E-05  1387   0.165E-02    0.629E-02
RMM:   8    -0.574550846224E+03    0.14914E-03   -0.28863E-04  1594   0.146E-02    0.305E-02
RMM:   9    -0.574550826995E+03    0.19229E-04   -0.13070E-04  1590   0.110E-02    0.128E-02
RMM:  10    -0.574550828573E+03   -0.15784E-05   -0.41017E-05  1480   0.711E-03    0.577E-03
RMM:  11    -0.574550828318E+03    0.25527E-06   -0.47932E-06  1532   0.313E-03    0.406E-03
RMM:  12    -0.574550828279E+03    0.38493E-07   -0.32237E-06  1418   0.191E-03    0.127E-03
RMM:  13    -0.574550829593E+03   -0.13140E-05   -0.37038E-07  1427   0.898E-04    0.195E-03
RMM:  14    -0.574550831781E+03   -0.21878E-05   -0.39084E-07  1379   0.700E-04    0.114E-03
RMM:  15    -0.574550832359E+03   -0.57774E-06   -0.34906E-07  1444   0.598E-04    0.761E-04
RMM:  16    -0.574550833443E+03   -0.10838E-05   -0.22269E-07  1354   0.458E-04    0.407E-04
RMM:  17    -0.574550834610E+03   -0.11675E-05   -0.88815E-08  1119   0.287E-04    0.396E-04
RMM:  18    -0.574550835064E+03   -0.45355E-06   -0.24977E-08   941   0.144E-04    0.304E-04
RMM:  19    -0.574550835477E+03   -0.41285E-06   -0.44545E-08  1068   0.187E-04    0.184E-04
RMM:  20    -0.574550835537E+03   -0.60561E-07   -0.60216E-09   823   0.985E-05    0.140E-04
RMM:  21    -0.574550835594E+03   -0.57124E-07   -0.11644E-08   856   0.916E-05    0.830E-05
RMM:  22    -0.574550835623E+03   -0.28504E-07   -0.43853E-09   780   0.738E-05    0.639E-05
RMM:  23    -0.574550835641E+03   -0.18648E-07   -0.25598E-09   729   0.581E-05    0.402E-05
RMM:  24    -0.574550835639E+03    0.22228E-08   -0.80594E-10   483   0.389E-05
  19 F= -.57455084E+03 E0= -.57455084E+03  d E =-.317648E-02
       N       E                     dE             d eps       ncg     rms          rms(c)
DAV:   1    -0.574550663451E+03    0.17219E-03   -0.77083E-02  1512   0.441E-01    0.732E-02
RMM:   2    -0.574550858455E+03   -0.19500E-03   -0.24357E-03  1378   0.927E-02    0.147E-02
RMM:   3    -0.574550934652E+03   -0.76197E-04   -0.86806E-04  1661   0.439E-02    0.367E-02
RMM:   4    -0.574550935921E+03   -0.12694E-05   -0.71105E-05  1485   0.134E-02    0.288E-02
RMM:   5    -0.574550930607E+03    0.53143E-05   -0.85396E-06  1489   0.479E-03    0.251E-02
RMM:   6    -0.574550931300E+03   -0.69279E-06   -0.21231E-04  1569   0.137E-02    0.166E-02
RMM:   7    -0.574550930422E+03    0.87834E-06   -0.69765E-06  1387   0.454E-03    0.176E-02
RMM:   8    -0.574550918927E+03    0.11495E-04   -0.22525E-05  1593   0.406E-03    0.849E-03
RMM:   9    -0.574550917435E+03    0.14918E-05   -0.98745E-06  1584   0.305E-03    0.344E-03
RMM:  10    -0.574550917558E+03   -0.12327E-06   -0.34472E-06  1480   0.203E-03    0.163E-03
RMM:  11    -0.574550917496E+03    0.62355E-07   -0.36237E-07  1537   0.867E-04    0.126E-03
RMM:  12    -0.574550917470E+03    0.25764E-07   -0.28807E-07  1300   0.563E-04    0.359E-04
RMM:  13    -0.574550917586E+03   -0.11527E-06   -0.27219E-08  1028   0.256E-04    0.464E-04
RMM:  14    -0.574550917794E+03   -0.20871E-06   -0.31489E-08   972   0.195E-04    0.281E-04
RMM:  15    -0.574550917853E+03   -0.58459E-07   -0.26386E-08   997   0.170E-04    0.179E-04
RMM:  16    -0.574550917970E+03   -0.11695E-06   -0.16385E-08   893   0.136E-04    0.111E-04
RMM:  17    -0.574550918035E+03   -0.65094E-07   -0.74664E-09   826   0.100E-04    0.100E-04
RMM:  18    -0.574550918073E+03   -0.38202E-07   -0.36115E-09   772   0.710E-05    0.588E-05
RMM:  19    -0.574550918107E+03   -0.34346E-07   -0.39634E-09   733   0.619E-05    0.541E-05
RMM:  20    -0.574550918110E+03   -0.25138E-08   -0.13839E-09   560   0.454E-05
  20 F= -.57455092E+03 E0= -.57455092E+03  d E =-.325895E-02
       N       E                     dE             d eps       ncg     rms          rms(c)
DAV:   1    -0.574551250830E+03   -0.33272E-03   -0.75138E-01  1472   0.134E+00    0.210E-01
RMM:   2    -0.574552865710E+03   -0.16149E-02   -0.19366E-02  1386   0.250E-01    0.448E-02
RMM:   3    -0.574553332489E+03   -0.46678E-03   -0.54734E-03  1626   0.113E-01    0.920E-02
RMM:   4    -0.574553349000E+03   -0.16511E-04   -0.58246E-04  1522   0.376E-02    0.714E-02
RMM:   5    -0.574553294749E+03    0.54250E-04   -0.79954E-05  1434   0.141E-02    0.537E-02
RMM:   6    -0.574553290761E+03    0.39887E-05   -0.98942E-04  1549   0.314E-02    0.366E-02
RMM:   7    -0.574553268442E+03    0.22319E-04   -0.37728E-05  1425   0.102E-02    0.314E-02
RMM:   8    -0.574553236245E+03    0.32196E-04   -0.20699E-04  1554   0.119E-02    0.624E-03
RMM:   9    -0.574553237829E+03   -0.15838E-05   -0.14753E-05  1735   0.524E-03    0.476E-03
RMM:  10    -0.574553238551E+03   -0.72218E-06   -0.92715E-07  1393   0.134E-03    0.371E-03
RMM:  11    -0.574553240183E+03   -0.16320E-05   -0.47088E-06  1409   0.210E-03    0.236E-03
RMM:  12    -0.574553241416E+03   -0.12324E-05   -0.13760E-06  1583   0.127E-03    0.168E-03
RMM:  13    -0.574553242009E+03   -0.59363E-06   -0.14400E-07  1311   0.490E-04    0.109E-03
RMM:  14    -0.574553243646E+03   -0.16367E-05   -0.12127E-06  1519   0.886E-04    0.147E-03
RMM:  15    -0.574553243756E+03   -0.10951E-06   -0.30747E-07  1287   0.505E-04    0.484E-04
RMM:  16    -0.574553244190E+03   -0.43393E-06   -0.50088E-07  1422   0.602E-04    0.928E-04
RMM:  17    -0.574553244411E+03   -0.22178E-06   -0.49314E-08  1075   0.244E-04    0.608E-04
RMM:  18    -0.574553244595E+03   -0.18341E-06   -0.10849E-07  1175   0.262E-04    0.118E-04
RMM:  19    -0.574553244643E+03   -0.48389E-07   -0.22990E-08   970   0.170E-04    0.847E-05
RMM:  20    -0.574553244659E+03   -0.15702E-07   -0.83548E-09   816   0.113E-04    0.134E-04
RMM:  21    -0.574553244667E+03   -0.82000E-08   -0.26624E-09   764   0.719E-05
  21 F= -.57455324E+03 E0= -.57455324E+03  d E =-.232656E-02
       N       E                     dE             d eps       ncg     rms          rms(c)
DAV:   1    -0.574552752611E+03    0.49205E-03   -0.34363E-01  1504   0.908E-01    0.142E-01
RMM:   2    -0.574553487898E+03   -0.73529E-03   -0.88448E-03  1387   0.169E-01    0.302E-02
RMM:   3    -0.574553700142E+03   -0.21224E-03   -0.24968E-03  1628   0.765E-02    0.625E-02
RMM:   4    -0.574553707159E+03   -0.70167E-05   -0.26329E-04  1519   0.252E-02    0.485E-02
RMM:   5    -0.574553681754E+03    0.25405E-04   -0.36476E-05  1426   0.959E-03    0.363E-02
RMM:   6    -0.574553679869E+03    0.18849E-05   -0.45169E-04  1554   0.212E-02    0.249E-02
RMM:   7    -0.574553670220E+03    0.96492E-05   -0.16774E-05  1433   0.683E-03    0.215E-02
RMM:   8    -0.574553655076E+03    0.15144E-04   -0.87089E-05  1553   0.776E-03    0.472E-03
RMM:   9    -0.574553655889E+03   -0.81331E-06   -0.83689E-06  1739   0.365E-03    0.337E-03
RMM:  10    -0.574553656244E+03   -0.35534E-06   -0.38364E-07  1398   0.882E-04    0.261E-03
RMM:  11    -0.574553657080E+03   -0.83552E-06   -0.22830E-06  1407   0.145E-03    0.169E-03
RMM:  12    -0.574553657691E+03   -0.61105E-06   -0.72688E-07  1521   0.913E-04    0.124E-03
RMM:  13    -0.574553658037E+03   -0.34568E-06   -0.81222E-08  1151   0.381E-04    0.734E-04
RMM:  14    -0.574553658740E+03   -0.70314E-06   -0.48299E-07  1426   0.572E-04    0.844E-04
RMM:  15    -0.574553658869E+03   -0.12869E-06   -0.12226E-07  1156   0.332E-04    0.239E-04
RMM:  16    -0.574553659086E+03   -0.21709E-06   -0.15059E-07  1267   0.344E-04    0.530E-04
RMM:  17    -0.574553659197E+03   -0.11136E-06   -0.32861E-08  1015   0.178E-04    0.235E-04
RMM:  18    -0.574553659279E+03   -0.81818E-07   -0.58807E-08  1089   0.203E-04    0.143E-04
RMM:  19    -0.574553659294E+03   -0.15603E-07   -0.51825E-09   808   0.983E-05    0.819E-05
RMM:  20    -0.574553659303E+03   -0.84838E-08   -0.28002E-09   748   0.623E-05
  22 F= -.57455366E+03 E0= -.57455366E+03  d E =-.274119E-02
       N       E                     dE             d eps       ncg     rms          rms(c)
DAV:   1    -0.574550869245E+03    0.27900E-02   -0.20158E+00  1416   0.223E+00    0.282E-01
RMM:   2    -0.574554611535E+03   -0.37423E-02   -0.43679E-02  1385   0.372E-01    0.641E-02
RMM:   3    -0.574555206946E+03   -0.59541E-03   -0.87626E-03  1548   0.164E-01    0.109E-01
RMM:   4    -0.574555267899E+03   -0.60953E-04   -0.14482E-03  1535   0.624E-02    0.887E-02
RMM:   5    -0.574555039900E+03    0.22800E-03   -0.53135E-04  1376   0.345E-02    0.291E-02
RMM:   6    -0.574555017079E+03    0.22821E-04   -0.81621E-04  1376   0.348E-02    0.435E-02
RMM:   7    -0.574554964098E+03    0.52981E-04   -0.22319E-04  1376   0.188E-02    0.809E-03
RMM:   8    -0.574554976077E+03   -0.11979E-04   -0.16625E-04  1580   0.134E-02    0.161E-02
RMM:   9    -0.574554970798E+03    0.52792E-05   -0.13325E-05  1477   0.580E-03    0.122E-02
RMM:  10    -0.574554970116E+03    0.68106E-06   -0.38304E-06  1432   0.286E-03    0.115E-02
RMM:  11    -0.574554968794E+03    0.13226E-05   -0.30557E-05  1542   0.469E-03    0.395E-03
RMM:  12    -0.574554969464E+03   -0.66965E-06   -0.32300E-06  1581   0.229E-03    0.271E-03
RMM:  13    -0.574554969381E+03    0.82830E-07   -0.39027E-07  1443   0.829E-04    0.177E-03
RMM:  14    -0.574554970054E+03   -0.67343E-06   -0.93608E-07  1376   0.102E-03    0.145E-03
RMM:  15    -0.574554970170E+03   -0.11575E-06   -0.26397E-07  1474   0.619E-04    0.579E-04
RMM:  16    -0.574554970361E+03   -0.19157E-06   -0.44854E-08  1091   0.283E-04    0.555E-04
RMM:  17    -0.574554970490E+03   -0.12862E-06   -0.49065E-08  1094   0.222E-04    0.219E-04
RMM:  18    -0.574554970526E+03   -0.36285E-07   -0.21485E-08   956   0.173E-04    0.180E-04
RMM:  19    -0.574554970527E+03   -0.21100E-09   -0.43047E-09   845   0.911E-05
  23 F= -.57455497E+03 E0= -.57455497E+03  d E =-.131122E-02
       N       E                     dE             d eps       ncg     rms          rms(c)
DAV:   1    -0.574554969425E+03    0.11018E-05   -0.91441E-04  1504   0.475E-02    0.605E-03
RMM:   2    -0.574554971166E+03   -0.17419E-05   -0.19974E-05  1389   0.797E-03    0.137E-03
RMM:   3    -0.574554971440E+03   -0.27332E-06   -0.39621E-06  1541   0.350E-03    0.229E-03
RMM:   4    -0.574554971470E+03   -0.30610E-07   -0.67802E-07  1523   0.134E-03    0.187E-03
RMM:   5    -0.574554971364E+03    0.10636E-06   -0.23253E-07  1370   0.724E-04    0.620E-04
RMM:   6    -0.574554971349E+03    0.15341E-07   -0.37242E-07  1372   0.745E-04    0.929E-04
RMM:   7    -0.574554971328E+03    0.21104E-07   -0.11989E-07  1330   0.423E-04    0.206E-04
RMM:   8    -0.574554971332E+03   -0.43183E-08   -0.70444E-08  1117   0.280E-04
  24 F= -.57455497E+03 E0= -.57455497E+03  d E =-.131203E-02
       N       E                     dE             d eps       ncg     rms          rms(c)
DAV:   1    -0.574554888866E+03    0.82462E-04   -0.13871E-01  1440   0.582E-01    0.981E-02
RMM:   2    -0.574555243886E+03   -0.35502E-03   -0.40956E-03  1380   0.118E-01    0.199E-02
RMM:   3    -0.574555350940E+03   -0.10705E-03   -0.11684E-03  1591   0.533E-02    0.441E-02
RMM:   4    -0.574555356282E+03   -0.53415E-05   -0.13672E-04  1549   0.182E-02    0.348E-02
RMM:   5    -0.574555350580E+03    0.57016E-05   -0.13457E-05  1458   0.595E-03    0.308E-02
RMM:   6    -0.574555342203E+03    0.83773E-05   -0.19457E-04  1536   0.134E-02    0.129E-02
RMM:   7    -0.574555349353E+03   -0.71503E-05   -0.22185E-05  1541   0.620E-03    0.198E-02
RMM:   8    -0.574555338363E+03    0.10990E-04   -0.12758E-05  1399   0.356E-03    0.125E-02
RMM:   9    -0.574555334986E+03    0.33771E-05   -0.44412E-05  1540   0.573E-03    0.365E-03
RMM:  10    -0.574555334972E+03    0.13912E-07   -0.11583E-06  1482   0.187E-03    0.210E-03
RMM:  11    -0.574555335026E+03   -0.53722E-07   -0.64006E-07  1391   0.117E-03    0.184E-03
RMM:  12    -0.574555335027E+03   -0.12587E-08   -0.95881E-08  1298   0.452E-04
  25 F= -.57455534E+03 E0= -.57455534E+03  d E =-.363696E-03
