 vasp.6.2.1 16May21 (build Dec 23 2021 00:35:04) complex                        
  
 executed on             LinuxIFC date 2023.03.05  12:20:17
 running on  128 total cores
 distrk:  each k-point on  128 cores,    1 groups
 distr:  one band on NCORE=  16 cores,    8 groups


--------------------------------------------------------------------------------------------------------


 INCAR:
   ENCUT = 400.000000
   KSPACING = 0.500000
   SIGMA = 0.100000
   EDIFF = 1.00e-08
   EDIFFG = -1.00e-02
   ALGO = Fast
   GGA = PE
   PREC = Normal
   IBRION = 2
   IDIPOL = 3
   ISIF = 2
   ISMEAR = 0
   ISPIN = 0
   ISYM = 0
   LMAXMIX = 6
   NELM = 150
   NPAR = 8
   NSW = 800
   NWRITE = 1
   DIPOL = 0.3787 0.4227 0.4988
   KGAMMA = .TRUE.
   LASPH = .TRUE.
   LCHARG = .FALSE.
   LDIPOL = .TRUE.
   LWAVE = .FALSE.
   LREAL = AUTO

 POTCAR:    PAW_PBE Na 08Apr2002                  
 POTCAR:    PAW_PBE O 08Apr2002                   
 POTCAR:    PAW_PBE Cl 06Sep2000                  
 POTCAR:    PAW_PBE Na 08Apr2002                  
  local pseudopotential read in
  partial core-charges read in
  partial kinetic energy density read in
  atomic valenz-charges read in
  non local Contribution for L=           0  read in
    real space projection operators read in
  non local Contribution for L=           0  read in
    real space projection operators read in
  non local Contribution for L=           1  read in
    real space projection operators read in
    PAW grid and wavefunctions read in
 
   number of l-projection  operators is LMAX  =           3
   number of lm-projection operators is LMMAX =           5
 
 POTCAR:    PAW_PBE O 08Apr2002                   
  local pseudopotential read in
  partial core-charges read in
  partial kinetic energy density read in
  kinetic energy density of atom read in
  atomic valenz-charges read in
  non local Contribution for L=           0  read in
    real space projection operators read in
  non local Contribution for L=           0  read in
    real space projection operators read in
  non local Contribution for L=           1  read in
    real space projection operators read in
  non local Contribution for L=           1  read in
    real space projection operators read in
    PAW grid and wavefunctions read in
 
   number of l-projection  operators is LMAX  =           4
   number of lm-projection operators is LMMAX =           8
 
 POTCAR:    PAW_PBE Cl 06Sep2000                  
  local pseudopotential read in
  partial core-charges read in
  partial kinetic energy density read in
  atomic valenz-charges read in
  non local Contribution for L=           0  read in
    real space projection operators read in
  non local Contribution for L=           0  read in
    real space projection operators read in
  non local Contribution for L=           1  read in
    real space projection operators read in
  non local Contribution for L=           1  read in
    real space projection operators read in
    PAW grid and wavefunctions read in
 
   number of l-projection  operators is LMAX  =           4
   number of lm-projection operators is LMMAX =           8
 
 Optimization of the real space projectors (new method)

 maximal supplied QI-value         = 17.01
 optimisation between [QCUT,QGAM] = [ 10.20, 20.41] = [ 29.16,116.64] Ry 
 Optimized for a Real-space Cutoff    1.19 Angstroem

   l    n(q)    QCUT    max X(q) W(low)/X(q) W(high)/X(q)  e(spline) 
   0      7    10.205    45.123    0.22E-03    0.82E-03    0.11E-06
   0      7    10.205    12.364    0.17E-03    0.61E-03    0.75E-07
   1      7    10.205     8.302    0.37E-03    0.15E-03    0.27E-07
 Optimization of the real space projectors (new method)

 maximal supplied QI-value         = 24.76
 optimisation between [QCUT,QGAM] = [ 10.15, 20.30] = [ 28.85,115.39] Ry 
 Optimized for a Real-space Cutoff    1.38 Angstroem

   l    n(q)    QCUT    max X(q) W(low)/X(q) W(high)/X(q)  e(spline) 
   0      8    10.150    20.381    0.22E-03    0.32E-03    0.29E-06
   0      8    10.150    15.268    0.23E-03    0.35E-03    0.30E-06
   1      8    10.150     5.964    0.46E-03    0.53E-03    0.21E-06
   1      8    10.150     5.382    0.38E-03    0.45E-03    0.19E-06
 Optimization of the real space projectors (new method)

 maximal supplied QI-value         = 19.84
 optimisation between [QCUT,QGAM] = [ 10.12, 20.44] = [ 28.68,116.96] Ry 
 Optimized for a Real-space Cutoff    1.23 Angstroem

   l    n(q)    QCUT    max X(q) W(low)/X(q) W(high)/X(q)  e(spline) 
   0      7    10.119   168.010    0.54E-04    0.25E-03    0.48E-07
   0      7    10.119   164.674    0.53E-04    0.25E-03    0.47E-07
   1      7    10.119    69.222    0.45E-03    0.63E-03    0.13E-06
   1      7    10.119    56.786    0.45E-03    0.62E-03    0.13E-06
  PAW_PBE Na 08Apr2002                  :
 energy of atom  1       EATOM=   -5.1581
 kinetic energy error for atom=    0.0001 (will be added to EATOM!!)
  PAW_PBE O 08Apr2002                   :
 energy of atom  2       EATOM= -432.3788
 kinetic energy error for atom=    0.1156 (will be added to EATOM!!)
  PAW_PBE Cl 06Sep2000                  :
 energy of atom  3       EATOM= -409.7259
 kinetic energy error for atom=    0.0089 (will be added to EATOM!!)
 
 
 POSCAR: Na  O Cl
  positions in cartesian coordinates
  No initial velocities read in
 exchange correlation table for  LEXCH =        8
   RHO(1)=    0.500       N(1)  =     2000
   RHO(2)=  100.500       N(2)  =     4000
 


--------------------------------------------------------------------------------------------------------


 ion  position               nearest neighbor table
   1  0.250  0.000  0.298-  97 2.23  98 2.23 145 3.15  83 3.15   9 3.15 133 3.15 157 3.15  86 3.15
                            12 3.15  45 3.15   2 3.15 129 3.15  46 3.15   4 3.15
   2  0.000  0.125  0.217- 117 2.23  97 2.23  69 3.15  58 3.15 133 3.15  57 3.15   9 3.15 129 3.15
                             1 3.15  45 3.15
   3  0.250  0.000  0.460-  98 2.23  99 2.23  86 3.15  12 3.15 146 3.15  46 3.15   4 3.15 134 3.15
                           158 3.15  89 3.15  15 3.15 130 3.15  47 3.15   6 3.15
   4  0.000  0.125  0.379- 118 2.23  98 2.23  61 3.15 134 3.15  72 3.15 130 3.15   3 3.15  60 3.15
                            12 3.15  58 3.15 133 3.15  46 3.15 129 3.15   1 3.15
   5  0.250  0.000  0.621-  99 2.23 100 2.23  89 3.15  15 3.15 147 3.15  47 3.15   6 3.15 135 3.15
                           159 3.15  92 3.15  18 3.15 131 3.15  48 3.15   8 3.15
   6  0.000  0.125  0.540- 119 2.23  99 2.23  64 3.15 135 3.15  75 3.15 131 3.15   5 3.15  63 3.15
                            15 3.15  61 3.15 134 3.15  47 3.15 130 3.15   3 3.15
   7  0.250  0.000  0.783- 100 2.23 148 3.15  92 3.15  18 3.15 136 3.15 160 3.15  48 3.15   8 3.15
                           132 3.15
   8  0.000  0.125  0.702- 120 2.23 100 2.23  78 3.15  67 3.15 136 3.15  66 3.15  18 3.15  64 3.15
                           135 3.15 132 3.15   7 3.15  48 3.15 131 3.15   5 3.15
   9  0.250  0.125  0.217-  97 2.23 101 2.23  83 3.15 145 3.15   1 3.15  50 3.15   2 3.15  10 3.15
                           133 3.15  11 3.15
  10  0.250  0.250  0.298- 101 2.23 102 2.23 149 3.15  50 3.15  21 3.15 145 3.15 137 3.15  52 3.15
                            24 3.15   9 3.15  11 3.15 133 3.15  12 3.15  14 3.15
  11  0.000  0.375  0.217- 121 2.23 101 2.23  81 3.15  70 3.15 137 3.15  69 3.15  21 3.15 133 3.15
                            10 3.15   9 3.15
  12  0.250  0.125  0.379-  98 2.23 102 2.23 146 3.15   3 3.15  86 3.15  13 3.15 134 3.15  52 3.15
                             4 3.15 145 3.15   1 3.15  14 3.15  10 3.15 133 3.15
  13  0.250  0.250  0.460- 102 2.23 103 2.23  52 3.15  24 3.15 150 3.15  12 3.15  14 3.15 146 3.15
                           138 3.15  54 3.15  27 3.15 134 3.15  15 3.15  17 3.15
  14  0.000  0.375  0.379- 122 2.23 102 2.23  73 3.15 138 3.15  84 3.15 134 3.15  13 3.15  72 3.15
                            24 3.15  70 3.15 137 3.15  12 3.15 133 3.15  10 3.15
  15  0.250  0.125  0.540-  99 2.23 103 2.23 147 3.15   5 3.15  89 3.15  16 3.15 135 3.15  54 3.15
                             6 3.15 146 3.15   3 3.15  17 3.15  13 3.15 134 3.15
  16  0.250  0.250  0.621- 103 2.23 104 2.23  54 3.15  27 3.15 151 3.15  15 3.15  17 3.15 147 3.15
                           139 3.15  56 3.15  30 3.15 135 3.15  18 3.15  20 3.15
  17  0.000  0.375  0.540- 123 2.23 103 2.23  76 3.15 139 3.15  87 3.15 135 3.15  16 3.15  75 3.15
                            27 3.15  73 3.15 138 3.15  15 3.15 134 3.15  13 3.15
  18  0.250  0.125  0.702- 100 2.23 104 2.23  92 3.15 148 3.15   7 3.15  56 3.15   8 3.15 147 3.15
                             5 3.15  19 3.15 136 3.15  20 3.15  16 3.15 135 3.15
  19  0.250  0.250  0.783- 104 2.23 152 3.15  56 3.15  30 3.15 148 3.15 140 3.15  18 3.15  20 3.15
                           136 3.15
  20  0.000  0.375  0.702- 124 2.23 104 2.23  90 3.15  79 3.15 140 3.15  78 3.15  30 3.15  76 3.15
                           139 3.15 136 3.15  19 3.15  18 3.15 135 3.15  16 3.15
  21  0.250  0.375  0.217- 101 2.23 105 2.23  50 3.15 149 3.15  10 3.15  59 3.15  11 3.15  22 3.15
                           137 3.15  23 3.15
  22  0.250  0.500  0.298- 105 2.23 106 2.23 153 3.15  59 3.15  33 3.15 149 3.15 141 3.15  62 3.15
                            36 3.15  21 3.15  23 3.15 137 3.15  24 3.15  26 3.15
  23  0.000  0.625  0.217- 125 2.23 105 2.23  93 3.15  82 3.15 141 3.15  81 3.15  33 3.15 137 3.15
                            22 3.15  21 3.15
  24  0.250  0.375  0.379- 102 2.23 106 2.23 150 3.15  13 3.15  52 3.15  25 3.15 138 3.15  62 3.15
                            14 3.15 149 3.15  10 3.15  26 3.15  22 3.15 137 3.15
  25  0.250  0.500  0.460- 106 2.23 107 2.23  62 3.15  36 3.15 154 3.15  24 3.15  26 3.15 150 3.15
                           142 3.15  65 3.15  39 3.15 138 3.15  27 3.15  29 3.15
  26  0.000  0.625  0.379- 126 2.23 106 2.23  85 3.15 142 3.15  94 3.15 138 3.15  25 3.15  84 3.15
                            36 3.15  82 3.15 141 3.15  24 3.15 137 3.15  22 3.15
  27  0.250  0.375  0.540- 103 2.23 107 2.23 151 3.15  16 3.15  54 3.15  28 3.15 139 3.15  65 3.15
                            17 3.15 150 3.15  13 3.15  29 3.15  25 3.15 138 3.15
  28  0.250  0.500  0.621- 107 2.23 108 2.23  65 3.15  39 3.15 155 3.15  27 3.15  29 3.15 151 3.15
                           143 3.15  68 3.15  42 3.15 139 3.15  30 3.15  32 3.15
  29  0.000  0.625  0.540- 127 2.23 107 2.23  88 3.15 143 3.15  95 3.15 139 3.15  28 3.15  87 3.15
                            39 3.15  85 3.15 142 3.15  27 3.15 138 3.15  25 3.15
  30  0.250  0.375  0.702- 104 2.23 108 2.23  56 3.15 152 3.15  19 3.15  68 3.15  20 3.15 151 3.15
                            16 3.15  31 3.15 140 3.15  32 3.15  28 3.15 139 3.15
  31  0.250  0.500  0.783- 108 2.23 156 3.15  68 3.15  42 3.15 152 3.15 144 3.15  30 3.15  32 3.15
                           140 3.15
  32  0.000  0.625  0.702- 128 2.23 108 2.23  96 3.15  91 3.15 144 3.15  90 3.15  42 3.15  88 3.15
                           143 3.15 140 3.15  31 3.15  30 3.15 139 3.15  28 3.15
  33  0.250  0.625  0.217- 105 2.23 109 2.23  59 3.15 153 3.15  22 3.15  71 3.15  23 3.15  34 3.15
                           141 3.15  35 3.15
  34  0.250  0.750  0.298- 109 2.23 110 2.23 157 3.15  71 3.15  45 3.15 153 3.15 129 3.15  74 3.15
                            46 3.15  33 3.15  35 3.15 141 3.15  36 3.15  38 3.15
  35  0.000  0.875  0.217- 113 2.23 109 2.23  57 3.15  49 3.15 129 3.15  93 3.15  45 3.15 141 3.15
                            34 3.15  33 3.15
  36  0.250  0.625  0.379- 106 2.23 110 2.23 154 3.15  25 3.15  62 3.15  37 3.15 142 3.15  74 3.15
                            26 3.15 153 3.15  22 3.15  38 3.15  34 3.15 141 3.15
  37  0.250  0.750  0.460- 110 2.23 111 2.23  74 3.15  46 3.15 158 3.15  36 3.15  38 3.15 154 3.15
                           130 3.15  77 3.15  47 3.15 142 3.15  39 3.15  41 3.15
  38  0.000  0.875  0.379- 114 2.23 110 2.23  51 3.15 130 3.15  60 3.15 142 3.15  37 3.15  94 3.15
                            46 3.15  49 3.15 129 3.15  36 3.15 141 3.15  34 3.15
  39  0.250  0.625  0.540- 107 2.23 111 2.23 155 3.15  28 3.15  65 3.15  40 3.15 143 3.15  77 3.15
                            29 3.15 154 3.15  25 3.15  41 3.15  37 3.15 142 3.15
  40  0.250  0.750  0.621- 111 2.23 112 2.23  77 3.15  47 3.15 159 3.15  39 3.15  41 3.15 155 3.15
                           131 3.15  80 3.15  48 3.15 143 3.15  42 3.15  44 3.15
  41  0.000  0.875  0.540- 115 2.23 111 2.23  53 3.15 131 3.15  63 3.15 143 3.15  40 3.15  95 3.15
                            47 3.15  51 3.15 130 3.15  39 3.15 142 3.15  37 3.15
  42  0.250  0.625  0.702- 108 2.23 112 2.23  68 3.15 156 3.15  31 3.15  80 3.15  32 3.15 155 3.15
                            28 3.15  43 3.15 144 3.15  44 3.15  40 3.15 143 3.15
  43  0.250  0.750  0.783- 112 2.23 160 3.15  80 3.15  48 3.15 156 3.15 132 3.15  42 3.15  44 3.15
                           144 3.15
  44  0.000  0.875  0.702- 116 2.23 112 2.23  66 3.15  55 3.15 132 3.15  96 3.15  48 3.15  53 3.15
                           131 3.15 144 3.15  43 3.15  42 3.15 143 3.15  40 3.15
  45  0.250  0.875  0.217- 109 2.23  97 2.23  71 3.15 157 3.15  34 3.15  83 3.15  35 3.15   1 3.15
                           129 3.15   2 3.15
  46  0.250  0.875  0.379- 110 2.23  98 2.23 158 3.15  37 3.15  74 3.15   3 3.15 130 3.15  86 3.15
                            38 3.15 157 3.15  34 3.15   4 3.15   1 3.15 129 3.15
  47  0.250  0.875  0.540- 111 2.23  99 2.23 159 3.15  40 3.15  77 3.15   5 3.15 131 3.15  89 3.15
                            41 3.15 158 3.15  37 3.15   6 3.15   3 3.15 130 3.15
  48  0.250  0.875  0.702- 112 2.23 100 2.23  80 3.15 160 3.15  43 3.15  92 3.15  44 3.15 159 3.15
                            40 3.15   7 3.15 132 3.15   8 3.15   5 3.15 131 3.15
  49  0.750  0.000  0.298- 113 2.23 114 2.23 129 3.15  35 3.15  57 3.15 141 3.15 149 3.15  38 3.15
                            60 3.15  93 3.15  50 3.15 145 3.15  94 3.15  52 3.15
  50  0.500  0.125  0.217- 101 2.23 113 2.23  21 3.15  10 3.15 149 3.15   9 3.15  57 3.15 145 3.15
                            49 3.15  93 3.15
  51  0.750  0.000  0.460- 114 2.23 115 2.23  38 3.15  60 3.15 130 3.15  94 3.15  52 3.15 142 3.15
                           150 3.15  41 3.15  63 3.15 146 3.15  95 3.15  54 3.15
  52  0.500  0.125  0.379- 102 2.23 114 2.23  13 3.15 150 3.15  24 3.15 146 3.15  51 3.15  12 3.15
                            60 3.15  10 3.15 149 3.15  94 3.15 145 3.15  49 3.15
  53  0.750  0.000  0.621- 115 2.23 116 2.23  41 3.15  63 3.15 131 3.15  95 3.15  54 3.15 143 3.15
                           151 3.15  44 3.15  66 3.15 147 3.15  96 3.15  56 3.15
  54  0.500  0.125  0.540- 103 2.23 115 2.23  16 3.15 151 3.15  27 3.15 147 3.15  53 3.15  15 3.15
                            63 3.15  13 3.15 150 3.15  95 3.15 146 3.15  51 3.15
  55  0.750  0.000  0.783- 116 2.23 132 3.15  44 3.15  66 3.15 144 3.15 152 3.15  96 3.15  56 3.15
                           148 3.15
  56  0.500  0.125  0.702- 104 2.23 116 2.23  30 3.15  19 3.15 152 3.15  18 3.15  66 3.15  16 3.15
                           151 3.15 148 3.15  55 3.15  96 3.15 147 3.15  53 3.15
  57  0.750  0.125  0.217- 113 2.23 117 2.23  35 3.15 129 3.15  49 3.15   2 3.15  50 3.15  58 3.15
                           149 3.15  59 3.15
  58  0.750  0.250  0.298- 117 2.23 118 2.23 133 3.15   2 3.15  69 3.15 129 3.15 153 3.15   4 3.15
                            72 3.15  57 3.15  59 3.15 149 3.15  60 3.15  62 3.15
  59  0.500  0.375  0.217- 105 2.23 117 2.23  33 3.15  22 3.15 153 3.15  21 3.15  69 3.15 149 3.15
                            58 3.15  57 3.15
  60  0.750  0.125  0.379- 114 2.23 118 2.23 130 3.15  51 3.15  38 3.15  61 3.15 150 3.15   4 3.15
                            52 3.15 129 3.15  49 3.15  62 3.15  58 3.15 149 3.15
  61  0.750  0.250  0.460- 118 2.23 119 2.23   4 3.15  72 3.15 134 3.15  60 3.15  62 3.15 130 3.15
                           154 3.15   6 3.15  75 3.15 150 3.15  63 3.15  65 3.15
  62  0.500  0.375  0.379- 106 2.23 118 2.23  25 3.15 154 3.15  36 3.15 150 3.15  61 3.15  24 3.15
                            72 3.15  22 3.15 153 3.15  60 3.15 149 3.15  58 3.15
  63  0.750  0.125  0.540- 115 2.23 119 2.23 131 3.15  53 3.15  41 3.15  64 3.15 151 3.15   6 3.15
                            54 3.15 130 3.15  51 3.15  65 3.15  61 3.15 150 3.15
  64  0.750  0.250  0.621- 119 2.23 120 2.23   6 3.15  75 3.15 135 3.15  63 3.15  65 3.15 131 3.15
                           155 3.15   8 3.15  78 3.15 151 3.15  66 3.15  68 3.15
  65  0.500  0.375  0.540- 107 2.23 119 2.23  28 3.15 155 3.15  39 3.15 151 3.15  64 3.15  27 3.15
                            75 3.15  25 3.15 154 3.15  63 3.15 150 3.15  61 3.15
  66  0.750  0.125  0.702- 116 2.23 120 2.23  44 3.15 132 3.15  55 3.15   8 3.15  56 3.15 131 3.15
                            53 3.15  67 3.15 152 3.15  68 3.15  64 3.15 151 3.15
  67  0.750  0.250  0.783- 120 2.23 136 3.15   8 3.15  78 3.15 132 3.15 156 3.15  66 3.15  68 3.15
                           152 3.15
  68  0.500  0.375  0.702- 108 2.23 120 2.23  42 3.15  31 3.15 156 3.15  30 3.15  78 3.15  28 3.15
                           155 3.15 152 3.15  67 3.15  66 3.15 151 3.15  64 3.15
  69  0.750  0.375  0.217- 117 2.23 121 2.23   2 3.15 133 3.15  58 3.15  11 3.15  59 3.15  70 3.15
                           153 3.15  71 3.15
  70  0.750  0.500  0.298- 121 2.23 122 2.23 137 3.15  11 3.15  81 3.15 133 3.15 157 3.15  14 3.15
                            84 3.15  69 3.15  71 3.15 153 3.15  72 3.15  74 3.15
  71  0.500  0.625  0.217- 109 2.23 121 2.23  45 3.15  34 3.15 157 3.15  33 3.15  81 3.15 153 3.15
                            70 3.15  69 3.15
  72  0.750  0.375  0.379- 118 2.23 122 2.23 134 3.15  61 3.15   4 3.15  73 3.15 154 3.15  14 3.15
                            62 3.15 133 3.15  58 3.15  74 3.15  70 3.15 153 3.15
  73  0.750  0.500  0.460- 122 2.23 123 2.23  14 3.15  84 3.15 138 3.15  72 3.15  74 3.15 134 3.15
                           158 3.15  17 3.15  87 3.15 154 3.15  75 3.15  77 3.15
  74  0.500  0.625  0.379- 110 2.23 122 2.23  37 3.15 158 3.15  46 3.15 154 3.15  73 3.15  36 3.15
                            84 3.15  34 3.15 157 3.15  72 3.15 153 3.15  70 3.15
  75  0.750  0.375  0.540- 119 2.23 123 2.23 135 3.15  64 3.15   6 3.15  76 3.15 155 3.15  17 3.15
                            65 3.15 134 3.15  61 3.15  77 3.15  73 3.15 154 3.15
  76  0.750  0.500  0.621- 123 2.23 124 2.23  17 3.15  87 3.15 139 3.15  75 3.15  77 3.15 135 3.15
                           159 3.15  20 3.15  90 3.15 155 3.15  78 3.15  80 3.15
  77  0.500  0.625  0.540- 111 2.23 123 2.23  40 3.15 159 3.15  47 3.15 155 3.15  76 3.15  39 3.15
                            87 3.15  37 3.15 158 3.15  75 3.15 154 3.15  73 3.15
  78  0.750  0.375  0.702- 120 2.23 124 2.23   8 3.15 136 3.15  67 3.15  20 3.15  68 3.15 135 3.15
                            64 3.15  79 3.15 156 3.15  80 3.15  76 3.15 155 3.15
  79  0.750  0.500  0.783- 124 2.23 140 3.15  20 3.15  90 3.15 136 3.15 160 3.15  78 3.15  80 3.15
                           156 3.15
  80  0.500  0.625  0.702- 112 2.23 124 2.23  48 3.15  43 3.15 160 3.15  42 3.15  90 3.15  40 3.15
                           159 3.15 156 3.15  79 3.15  78 3.15 155 3.15  76 3.15
  81  0.750  0.625  0.217- 121 2.23 125 2.23  11 3.15 137 3.15  70 3.15  23 3.15  71 3.15  82 3.15
                           157 3.15  83 3.15
  82  0.750  0.750  0.298- 125 2.23 126 2.23 141 3.15  23 3.15  93 3.15 137 3.15 145 3.15  26 3.15
                            94 3.15  81 3.15  83 3.15 157 3.15  84 3.15  86 3.15
  83  0.500  0.875  0.217-  97 2.23 125 2.23   9 3.15   1 3.15 145 3.15  45 3.15  93 3.15 157 3.15
                            82 3.15  81 3.15
  84  0.750  0.625  0.379- 122 2.23 126 2.23 138 3.15  73 3.15  14 3.15  85 3.15 158 3.15  26 3.15
                            74 3.15 137 3.15  70 3.15  86 3.15  82 3.15 157 3.15
  85  0.750  0.750  0.460- 126 2.23 127 2.23  26 3.15  94 3.15 142 3.15  84 3.15  86 3.15 138 3.15
                           146 3.15  29 3.15  95 3.15 158 3.15  87 3.15  89 3.15
  86  0.500  0.875  0.379-  98 2.23 126 2.23   3 3.15 146 3.15  12 3.15 158 3.15  85 3.15  46 3.15
                            94 3.15   1 3.15 145 3.15  84 3.15 157 3.15  82 3.15
  87  0.750  0.625  0.540- 123 2.23 127 2.23 139 3.15  76 3.15  17 3.15  88 3.15 159 3.15  29 3.15
                            77 3.15 138 3.15  73 3.15  89 3.15  85 3.15 158 3.15
  88  0.750  0.750  0.621- 127 2.23 128 2.23  29 3.15  95 3.15 143 3.15  87 3.15  89 3.15 139 3.15
                           147 3.15  32 3.15  96 3.15 159 3.15  90 3.15  92 3.15
  89  0.500  0.875  0.540-  99 2.23 127 2.23   5 3.15 147 3.15  15 3.15 159 3.15  88 3.15  47 3.15
                            95 3.15   3 3.15 146 3.15  87 3.15 158 3.15  85 3.15
  90  0.750  0.625  0.702- 124 2.23 128 2.23  20 3.15 140 3.15  79 3.15  32 3.15  80 3.15 139 3.15
                            76 3.15  91 3.15 160 3.15  92 3.15  88 3.15 159 3.15
  91  0.750  0.750  0.783- 128 2.23 144 3.15  32 3.15  96 3.15 140 3.15 148 3.15  90 3.15  92 3.15
                           160 3.15
  92  0.500  0.875  0.702- 100 2.23 128 2.23  18 3.15   7 3.15 148 3.15  48 3.15  96 3.15   5 3.15
                           147 3.15 160 3.15  91 3.15  90 3.15 159 3.15  88 3.15
  93  0.750  0.875  0.217- 125 2.23 113 2.23  23 3.15 141 3.15  82 3.15  35 3.15  83 3.15  49 3.15
                           145 3.15  50 3.15
  94  0.750  0.875  0.379- 126 2.23 114 2.23 142 3.15  85 3.15  26 3.15  51 3.15 146 3.15  38 3.15
                            86 3.15 141 3.15  82 3.15  52 3.15  49 3.15 145 3.15
  95  0.750  0.875  0.540- 127 2.23 115 2.23 143 3.15  88 3.15  29 3.15  53 3.15 147 3.15  41 3.15
                            89 3.15 142 3.15  85 3.15  54 3.15  51 3.15 146 3.15
  96  0.750  0.875  0.702- 128 2.23 116 2.23  32 3.15 144 3.15  91 3.15  44 3.15  92 3.15 143 3.15
                            88 3.15  55 3.15 148 3.15  56 3.15  53 3.15 147 3.15
  97  0.250  0.000  0.217-  83 2.23   9 2.23   1 2.23  45 2.23   2 2.23
  98  0.250  0.000  0.379-   3 2.23  86 2.23  12 2.23  46 2.23   4 2.23   1 2.23
  99  0.250  0.000  0.540-   5 2.23  89 2.23  15 2.23  47 2.23   6 2.23   3 2.23
 100  0.250  0.000  0.702-  92 2.23  18 2.23   7 2.23  48 2.23   8 2.23   5 2.23
 101  0.250  0.250  0.217-  50 2.23  21 2.23  10 2.23   9 2.23  11 2.23
 102  0.250  0.250  0.379-  13 2.23  52 2.23  24 2.23  12 2.23  14 2.23  10 2.23
 103  0.250  0.250  0.540-  16 2.23  54 2.23  27 2.23  15 2.23  17 2.23  13 2.23
 104  0.250  0.250  0.702-  56 2.23  30 2.23  19 2.23  18 2.23  20 2.23  16 2.23
 105  0.250  0.500  0.217-  59 2.23  33 2.23  22 2.23  21 2.23  23 2.23
 106  0.250  0.500  0.379-  25 2.23  62 2.23  36 2.23  24 2.23  26 2.23  22 2.23
 107  0.250  0.500  0.540-  28 2.23  65 2.23  39 2.23  27 2.23  29 2.23  25 2.23
 108  0.250  0.500  0.702-  68 2.23  42 2.23  31 2.23  30 2.23  32 2.23  28 2.23
 109  0.250  0.750  0.217-  71 2.23  45 2.23  34 2.23  33 2.23  35 2.23
 110  0.250  0.750  0.379-  37 2.23  74 2.23  46 2.23  36 2.23  38 2.23  34 2.23
 111  0.250  0.750  0.540-  40 2.23  77 2.23  47 2.23  39 2.23  41 2.23  37 2.23
 112  0.250  0.750  0.702-  80 2.23  48 2.23  43 2.23  42 2.23  44 2.23  40 2.23
 113  0.750  0.000  0.217-  35 2.23  57 2.23  49 2.23  93 2.23  50 2.23
 114  0.750  0.000  0.379-  51 2.23  38 2.23  60 2.23  94 2.23  52 2.23  49 2.23
 115  0.750  0.000  0.540-  53 2.23  41 2.23  63 2.23  95 2.23  54 2.23  51 2.23
 116  0.750  0.000  0.702-  44 2.23  66 2.23  55 2.23  96 2.23  56 2.23  53 2.23
 117  0.750  0.250  0.217-   2 2.23  69 2.23  58 2.23  57 2.23  59 2.23
 118  0.750  0.250  0.379-  61 2.23   4 2.23  72 2.23  60 2.23  62 2.23  58 2.23
 119  0.750  0.250  0.540-  64 2.23   6 2.23  75 2.23  63 2.23  65 2.23  61 2.23
 120  0.750  0.250  0.702-   8 2.23  78 2.23  67 2.23  66 2.23  68 2.23  64 2.23
 121  0.750  0.500  0.217-  11 2.23  81 2.23  70 2.23  69 2.23  71 2.23
 122  0.750  0.500  0.379-  73 2.23  14 2.23  84 2.23  72 2.23  74 2.23  70 2.23
 123  0.750  0.500  0.540-  76 2.23  17 2.23  87 2.23  75 2.23  77 2.23  73 2.23
 124  0.750  0.500  0.702-  20 2.23  90 2.23  79 2.23  78 2.23  80 2.23  76 2.23
 125  0.750  0.750  0.217-  23 2.23  93 2.23  82 2.23  81 2.23  83 2.23
 126  0.750  0.750  0.379-  85 2.23  26 2.23  94 2.23  84 2.23  86 2.23  82 2.23
 127  0.750  0.750  0.540-  88 2.23  29 2.23  95 2.23  87 2.23  89 2.23  85 2.23
 128  0.750  0.750  0.702-  32 2.23  96 2.23  91 2.23  90 2.23  92 2.23  88 2.23
 129  0.000  0.000  0.298-  49 3.15  57 3.15  35 3.15  34 3.15  58 3.15  60 3.15  38 3.15   2 3.15
                            45 3.15   1 3.15   4 3.15  46 3.15
 130  0.000  0.000  0.460-  60 3.15  38 3.15  51 3.15   4 3.15  46 3.15  37 3.15  61 3.15  63 3.15
                            41 3.15   3 3.15   6 3.15  47 3.15
 131  0.000  0.000  0.621-  63 3.15  41 3.15  53 3.15   6 3.15  47 3.15  40 3.15  64 3.15  66 3.15
                            44 3.15   5 3.15   8 3.15  48 3.15
 132  0.000  0.000  0.783-  55 3.15  66 3.15  44 3.15  43 3.15  67 3.15   8 3.15  48 3.15   7 3.15

 133  0.000  0.250  0.298-  58 3.15  69 3.15   2 3.15   1 3.15  70 3.15  72 3.15   4 3.15  11 3.15
                             9 3.15  10 3.15  14 3.15  12 3.15
 134  0.000  0.250  0.460-  72 3.15   4 3.15  61 3.15  14 3.15  12 3.15   3 3.15  73 3.15  75 3.15
                             6 3.15  13 3.15  17 3.15  15 3.15
 135  0.000  0.250  0.621-  75 3.15   6 3.15  64 3.15  17 3.15  15 3.15   5 3.15  76 3.15  78 3.15
                             8 3.15  16 3.15  20 3.15  18 3.15
 136  0.000  0.250  0.783-  67 3.15  78 3.15   8 3.15   7 3.15  79 3.15  20 3.15  18 3.15  19 3.15

 137  0.000  0.500  0.298-  70 3.15  81 3.15  11 3.15  10 3.15  82 3.15  84 3.15  14 3.15  23 3.15
                            21 3.15  22 3.15  26 3.15  24 3.15
 138  0.000  0.500  0.460-  84 3.15  14 3.15  73 3.15  26 3.15  24 3.15  13 3.15  85 3.15  87 3.15
                            17 3.15  25 3.15  29 3.15  27 3.15
 139  0.000  0.500  0.621-  87 3.15  17 3.15  76 3.15  29 3.15  27 3.15  16 3.15  88 3.15  90 3.15
                            20 3.15  28 3.15  32 3.15  30 3.15
 140  0.000  0.500  0.783-  79 3.15  90 3.15  20 3.15  19 3.15  91 3.15  32 3.15  30 3.15  31 3.15

 141  0.000  0.750  0.298-  82 3.15  93 3.15  23 3.15  22 3.15  49 3.15  94 3.15  26 3.15  35 3.15
                            33 3.15  34 3.15  38 3.15  36 3.15
 142  0.000  0.750  0.460-  94 3.15  26 3.15  85 3.15  38 3.15  36 3.15  25 3.15  51 3.15  95 3.15
                            29 3.15  37 3.15  41 3.15  39 3.15
 143  0.000  0.750  0.621-  95 3.15  29 3.15  88 3.15  41 3.15  39 3.15  28 3.15  53 3.15  96 3.15
                            32 3.15  40 3.15  44 3.15  42 3.15
 144  0.000  0.750  0.783-  91 3.15  96 3.15  32 3.15  31 3.15  55 3.15  44 3.15  42 3.15  43 3.15

 145  0.500  0.000  0.298-   1 3.15   9 3.15  83 3.15  82 3.15  10 3.15  12 3.15  86 3.15  50 3.15
                            93 3.15  49 3.15  52 3.15  94 3.15
 146  0.500  0.000  0.460-  12 3.15  86 3.15   3 3.15  52 3.15  94 3.15  13 3.15  85 3.15  15 3.15
                            89 3.15  51 3.15  54 3.15  95 3.15
 147  0.500  0.000  0.621-  15 3.15  89 3.15   5 3.15  54 3.15  95 3.15  16 3.15  88 3.15  18 3.15
                            92 3.15  53 3.15  56 3.15  96 3.15
 148  0.500  0.000  0.783-   7 3.15  18 3.15  92 3.15  91 3.15  19 3.15  56 3.15  96 3.15  55 3.15

 149  0.500  0.250  0.298-  10 3.15  21 3.15  50 3.15  49 3.15  22 3.15  24 3.15  52 3.15  59 3.15
                            57 3.15  58 3.15  62 3.15  60 3.15
 150  0.500  0.250  0.460-  24 3.15  52 3.15  13 3.15  62 3.15  60 3.15  51 3.15  25 3.15  27 3.15
                            54 3.15  61 3.15  65 3.15  63 3.15
 151  0.500  0.250  0.621-  27 3.15  54 3.15  16 3.15  65 3.15  63 3.15  53 3.15  28 3.15  30 3.15
                            56 3.15  64 3.15  68 3.15  66 3.15
 152  0.500  0.250  0.783-  19 3.15  30 3.15  56 3.15  55 3.15  31 3.15  68 3.15  66 3.15  67 3.15

 153  0.500  0.500  0.298-  22 3.15  33 3.15  59 3.15  58 3.15  34 3.15  36 3.15  62 3.15  71 3.15
                            69 3.15  70 3.15  74 3.15  72 3.15
 154  0.500  0.500  0.460-  36 3.15  62 3.15  25 3.15  74 3.15  72 3.15  61 3.15  37 3.15  39 3.15
                            65 3.15  73 3.15  77 3.15  75 3.15
 155  0.500  0.500  0.621-  39 3.15  65 3.15  28 3.15  77 3.15  75 3.15  64 3.15  40 3.15  42 3.15
                            68 3.15  76 3.15  80 3.15  78 3.15
 156  0.500  0.500  0.783-  31 3.15  42 3.15  68 3.15  67 3.15  43 3.15  80 3.15  78 3.15  79 3.15

 157  0.500  0.750  0.298-  34 3.15  45 3.15  71 3.15  70 3.15   1 3.15  46 3.15  74 3.15  83 3.15
                            81 3.15  82 3.15  86 3.15  84 3.15
 158  0.500  0.750  0.460-  46 3.15  74 3.15  37 3.15  86 3.15  84 3.15  73 3.15   3 3.15  47 3.15
                            77 3.15  85 3.15  89 3.15  87 3.15
 159  0.500  0.750  0.621-  47 3.15  77 3.15  40 3.15  89 3.15  87 3.15  76 3.15   5 3.15  48 3.15
                            80 3.15  88 3.15  92 3.15  90 3.15
 160  0.500  0.750  0.783-  43 3.15  48 3.15  80 3.15  79 3.15   7 3.15  92 3.15  90 3.15  91 3.15

 

IMPORTANT INFORMATION: All symmetrisations will be switched off!
NOSYMM: (Re-)initialisation of all symmetry stuff for point group C_1.


----------------------------------------------------------------------------------------

                                     Primitive cell                                     

  volume of cell :    4387.0346

  direct lattice vectors                    reciprocal lattice vectors
    -8.914756880  8.914756880  0.000000000     0.000000000  0.112173558  0.000000000
   -17.829513760  0.000000000  0.000000000    -0.056086779 -0.056086779  0.000000000
     0.000000000  0.000000000 27.600824368     0.000000000  0.000000000  0.036230802

  length of vectors
    12.607370085 17.829513760 27.600824368     0.112173558  0.079318684  0.036230802

  position of ions in fractional coordinates (direct lattice)
     0.250000085  0.000000000  0.298132001
     0.000000050  0.125000017  0.217384811
     0.250000085  0.000000000  0.459626390
     0.000000050  0.125000017  0.378879211
     0.250000085  0.000000000  0.621120789
     0.000000050  0.125000017  0.540373610
     0.250000085  0.000000000  0.782615189
     0.000000050  0.125000017  0.701867999
     0.250000085  0.124999983  0.217384811
     0.250000085  0.250000000  0.298132001
     0.000000050  0.375000017  0.217384811
     0.250000085  0.124999983  0.378879211
     0.250000085  0.250000000  0.459626390
     0.000000050  0.375000017  0.378879211
     0.250000085  0.124999983  0.540373610
     0.250000085  0.250000000  0.621120789
     0.000000050  0.375000017  0.540373610
     0.250000085  0.124999983  0.701867999
     0.250000085  0.250000000  0.782615189
     0.000000050  0.375000017  0.701867999
     0.250000085  0.374999983  0.217384811
     0.250000085  0.500000000  0.298132001
     0.000000050  0.625000017  0.217384811
     0.250000085  0.374999983  0.378879211
     0.250000085  0.500000000  0.459626390
     0.000000050  0.625000017  0.378879211
     0.250000085  0.374999983  0.540373610
     0.250000085  0.500000000  0.621120789
     0.000000050  0.625000017  0.540373610
     0.250000085  0.374999983  0.701867999
     0.250000085  0.500000000  0.782615189
     0.000000050  0.625000017  0.701867999
     0.250000085  0.624999983  0.217384811
     0.250000085  0.750000000  0.298132001
     0.000000050  0.875000017  0.217384811
     0.250000085  0.624999983  0.378879211
     0.250000085  0.750000000  0.459626390
     0.000000050  0.875000017  0.378879211
     0.250000085  0.624999983  0.540373610
     0.250000085  0.750000000  0.621120789
     0.000000050  0.875000017  0.540373610
     0.250000085  0.624999983  0.701867999
     0.250000085  0.750000000  0.782615189
     0.000000050  0.875000017  0.701867999
     0.250000085  0.874999983  0.217384811
     0.250000085  0.874999983  0.378879211
     0.250000085  0.874999983  0.540373610
     0.250000085  0.874999983  0.701867999
     0.750000085  0.000000000  0.298132001
     0.500000050  0.125000017  0.217384811
     0.750000085  0.000000000  0.459626390
     0.500000050  0.125000017  0.378879211
     0.750000085  0.000000000  0.621120789
     0.500000050  0.125000017  0.540373610
     0.750000085  0.000000000  0.782615189
     0.500000050  0.125000017  0.701867999
     0.750000085  0.124999983  0.217384811
     0.750000085  0.250000000  0.298132001
     0.500000050  0.375000017  0.217384811
     0.750000085  0.124999983  0.378879211
     0.750000085  0.250000000  0.459626390
     0.500000050  0.375000017  0.378879211
     0.750000085  0.124999983  0.540373610
     0.750000085  0.250000000  0.621120789
     0.500000050  0.375000017  0.540373610
     0.750000085  0.124999983  0.701867999
     0.750000085  0.250000000  0.782615189
     0.500000050  0.375000017  0.701867999
     0.750000085  0.374999983  0.217384811
     0.750000085  0.500000000  0.298132001
     0.500000050  0.625000017  0.217384811
     0.750000085  0.374999983  0.378879211
     0.750000085  0.500000000  0.459626390
     0.500000050  0.625000017  0.378879211
     0.750000085  0.374999983  0.540373610
     0.750000085  0.500000000  0.621120789
     0.500000050  0.625000017  0.540373610
     0.750000085  0.374999983  0.701867999
     0.750000085  0.500000000  0.782615189
     0.500000050  0.625000017  0.701867999
     0.750000085  0.624999983  0.217384811
     0.750000085  0.750000000  0.298132001
     0.500000050  0.875000017  0.217384811
     0.750000085  0.624999983  0.378879211
     0.750000085  0.750000000  0.459626390
     0.500000050  0.875000017  0.378879211
     0.750000085  0.624999983  0.540373610
     0.750000085  0.750000000  0.621120789
     0.500000050  0.875000017  0.540373610
     0.750000085  0.624999983  0.701867999
     0.750000085  0.750000000  0.782615189
     0.500000050  0.875000017  0.701867999
     0.750000085  0.874999983  0.217384811
     0.750000085  0.874999983  0.378879211
     0.750000085  0.874999983  0.540373610
     0.750000085  0.874999983  0.701867999
     0.250000085  0.000000000  0.217384811
     0.250000085  0.000000000  0.378879211
     0.250000085  0.000000000  0.540373610
     0.250000085  0.000000000  0.701867999
     0.250000085  0.250000000  0.217384811
     0.250000085  0.250000000  0.378879211
     0.250000085  0.250000000  0.540373610
     0.250000085  0.250000000  0.701867999
     0.250000085  0.500000000  0.217384811
     0.250000085  0.500000000  0.378879211
     0.250000085  0.500000000  0.540373610
     0.250000085  0.500000000  0.701867999
     0.250000085  0.750000000  0.217384811
     0.250000085  0.750000000  0.378879211
     0.250000085  0.750000000  0.540373610
     0.250000085  0.750000000  0.701867999
     0.750000085  0.000000000  0.217384811
     0.750000085  0.000000000  0.378879211
     0.750000085  0.000000000  0.540373610
     0.750000085  0.000000000  0.701867999
     0.750000085  0.250000000  0.217384811
     0.750000085  0.250000000  0.378879211
     0.750000085  0.250000000  0.540373610
     0.750000085  0.250000000  0.701867999
     0.750000085  0.500000000  0.217384811
     0.750000085  0.500000000  0.378879211
     0.750000085  0.500000000  0.540373610
     0.750000085  0.500000000  0.701867999
     0.750000085  0.750000000  0.217384811
     0.750000085  0.750000000  0.378879211
     0.750000085  0.750000000  0.540373610
     0.750000085  0.750000000  0.701867999
     0.000000050  0.000000000  0.298132001
     0.000000050  0.000000000  0.459626390
     0.000000050  0.000000000  0.621120789
     0.000000050  0.000000000  0.782615189
     0.000000050  0.250000000  0.298132001
     0.000000050  0.250000000  0.459626390
     0.000000050  0.250000000  0.621120789
     0.000000050  0.250000000  0.782615189
     0.000000050  0.500000000  0.298132001
     0.000000050  0.500000000  0.459626390
     0.000000050  0.500000000  0.621120789
     0.000000050  0.500000000  0.782615189
     0.000000050  0.750000000  0.298132001
     0.000000050  0.750000000  0.459626390
     0.000000050  0.750000000  0.621120789
     0.000000050  0.750000000  0.782615189
     0.500000050  0.000000000  0.298132001
     0.500000050  0.000000000  0.459626390
     0.500000050  0.000000000  0.621120789
     0.500000050  0.000000000  0.782615189
     0.500000050  0.250000000  0.298132001
     0.500000050  0.250000000  0.459626390
     0.500000050  0.250000000  0.621120789
     0.500000050  0.250000000  0.782615189
     0.500000050  0.500000000  0.298132001
     0.500000050  0.500000000  0.459626390
     0.500000050  0.500000000  0.621120789
     0.500000050  0.500000000  0.782615189
     0.500000050  0.750000000  0.298132001
     0.500000050  0.750000000  0.459626390
     0.500000050  0.750000000  0.621120789
     0.500000050  0.750000000  0.782615189

  ion indices of the primitive-cell ions
   primitive index   ion index
                 1           1
                 2           2
                 3           3
                 4           4
                 5           5
                 6           6
                 7           7
                 8           8
                 9           9
                10          10
                11          11
                12          12
                13          13
                14          14
                15          15
                16          16
                17          17
                18          18
                19          19
                20          20
                21          21
                22          22
                23          23
                24          24
                25          25
                26          26
                27          27
                28          28
                29          29
                30          30
                31          31
                32          32
                33          33
                34          34
                35          35
                36          36
                37          37
                38          38
                39          39
                40          40
                41          41
                42          42
                43          43
                44          44
                45          45
                46          46
                47          47
                48          48
                49          49
                50          50
                51          51
                52          52
                53          53
                54          54
                55          55
                56          56
                57          57
                58          58
                59          59
                60          60
                61          61
                62          62
                63          63
                64          64
                65          65
                66          66
                67          67
                68          68
                69          69
                70          70
                71          71
                72          72
                73          73
                74          74
                75          75
                76          76
                77          77
                78          78
                79          79
                80          80
                81          81
                82          82
                83          83
                84          84
                85          85
                86          86
                87          87
                88          88
                89          89
                90          90
                91          91
                92          92
                93          93
                94          94
                95          95
                96          96
                97          97
                98          98
                99          99
               100         100
               101         101
               102         102
               103         103
               104         104
               105         105
               106         106
               107         107
               108         108
               109         109
               110         110
               111         111
               112         112
               113         113
               114         114
               115         115
               116         116
               117         117
               118         118
               119         119
               120         120
               121         121
               122         122
               123         123
               124         124
               125         125
               126         126
               127         127
               128         128
               129         129
               130         130
               131         131
               132         132
               133         133
               134         134
               135         135
               136         136
               137         137
               138         138
               139         139
               140         140
               141         141
               142         142
               143         143
               144         144
               145         145
               146         146
               147         147
               148         148
               149         149
               150         150
               151         151
               152         152
               153         153
               154         154
               155         155
               156         156
               157         157
               158         158
               159         159
               160         160

----------------------------------------------------------------------------------------

 
 -----------------------------------------------------------------------------
|                                                                             |
|           W    W    AA    RRRRR   N    N  II  N    N   GGGG   !!!           |
|           W    W   A  A   R    R  NN   N  II  NN   N  G    G  !!!           |
|           W    W  A    A  R    R  N N  N  II  N N  N  G       !!!           |
|           W WW W  AAAAAA  RRRRR   N  N N  II  N  N N  G  GGG   !            |
|           WW  WW  A    A  R   R   N   NN  II  N   NN  G    G                |
|           W    W  A    A  R    R  N    N  II  N    N   GGGG   !!!           |
|                                                                             |
|     The requested file  could not be found or opened for reading            |
|     k-point information. Automatic k-point generation is used as a          |
|     fallback, which may lead to unwanted results.                           |
|                                                                             |
 -----------------------------------------------------------------------------

 

Automatic generation of k-mesh.
 Grid dimensions derived from KSPACING:
 generate k-points for:    2    1    1

 Generating k-lattice:

  Cartesian coordinates                     Fractional coordinates (reciprocal lattice)
     0.000000000  0.056086779  0.000000000     0.500000000  0.000000000  0.000000000
    -0.056086779 -0.056086779  0.000000000     0.000000000  1.000000000  0.000000000
     0.000000000  0.000000000  0.036230802     0.000000000  0.000000000  1.000000000

  Length of vectors
     0.056086779  0.079318684  0.036230802

  Shift w.r.t. Gamma in fractional coordinates (k-lattice)
     0.000000000  0.000000000  0.000000000

 
 Subroutine IBZKPT returns following result:
 ===========================================
 
 Found      2 irreducible k-points:
 
 Following reciprocal coordinates:
            Coordinates               Weight
  0.000000  0.000000  0.000000      1.000000
  0.500000  0.000000  0.000000      1.000000
 
 Following cartesian coordinates:
            Coordinates               Weight
  0.000000  0.000000  0.000000      1.000000
  0.000000  0.056087  0.000000      1.000000
 


--------------------------------------------------------------------------------------------------------




 Dimension of arrays:
   k-points           NKPTS =      2   k-points in BZ     NKDIM =      2   number of bands    NBANDS=    344
   number of dos      NEDOS =    301   number of ions     NIONS =    160
   non local maximal  LDIM  =      4   non local SUM 2l+1 LMDIM =      8
   total plane-waves  NPLWV = 806400
   max r-space proj   IRMAX =   2075   max aug-charges    IRDMAX=   9148
   dimension x,y,z NGX =    64 NGY =   90 NGZ =  140
   dimension x,y,z NGXF=   128 NGYF=  180 NGZF=  280
   support grid    NGXF=   128 NGYF=  180 NGZF=  280
   ions per type =              96  32  32
   NGX,Y,Z   is equivalent  to a cutoff of   8.44,  8.39,  8.43 a.u.
   NGXF,Y,Z  is equivalent  to a cutoff of  16.88, 16.78, 16.87 a.u.

 SYSTEM =  unknown system                          
 POSCAR =  Na  O Cl                                

 Startparameter for this run:
   NWRITE =      1    write-flag & timer
   PREC   = normal    normal or accurate (medium, high low for compatibility)
   ISTART =      0    job   : 0-new  1-cont  2-samecut
   ICHARG =      2    charge: 1-file 2-atom 10-const
   ISPIN  =      1    spin polarized calculation?
   LNONCOLLINEAR =      F non collinear calculations
   LSORBIT =      F    spin-orbit coupling
   INIWAV =      1    electr: 0-lowe 1-rand  2-diag
   LASPH  =      T    aspherical Exc in radial PAW
 Electronic Relaxation 1
   ENCUT  =  400.0 eV  29.40 Ry    5.42 a.u.  20.56 29.08 45.01*2*pi/ulx,y,z
   ENINI  =  400.0     initial cutoff
   ENAUG  =  605.4 eV  augmentation charge cutoff
   NELM   =    150;   NELMIN=  2; NELMDL=  0     # of ELM steps 
   EDIFF  = 0.1E-07   stopping-criterion for ELM
   LREAL  =      T    real-space projection
   NLSPLINE    = F    spline interpolate recip. space projectors
   LCOMPAT=      F    compatible to vasp.4.4
   GGA_COMPAT  = T    GGA compatible to vasp.4.4-vasp.4.6
   LMAXPAW     = -100 max onsite density
   LMAXMIX     =    6 max onsite mixed and CHGCAR
   VOSKOWN=      0    Vosko Wilk Nusair interpolation
   ROPT   =   -0.00050  -0.00050  -0.00050
 Ionic relaxation
   EDIFFG = -.1E-01   stopping-criterion for IOM
   NSW    =    800    number of steps for IOM
   NBLOCK =      1;   KBLOCK =    800    inner block; outer block 
   IBRION =      2    ionic relax: 0-MD 1-quasi-New 2-CG
   NFREE  =      1    steps in history (QN), initial steepest desc. (CG)
   ISIF   =      2    stress and relaxation
   IWAVPR =     11    prediction:  0-non 1-charg 2-wave 3-comb
   ISYM   =      0    0-nonsym 1-usesym 2-fastsym
   LCORR  =      T    Harris-Foulkes like correction to forces

   POTIM  = 0.5000    time-step for ionic-motion
   TEIN   =    0.0    initial temperature
   TEBEG  =    0.0;   TEEND  =   0.0 temperature during run
   SMASS  =  -3.00    Nose mass-parameter (am)
   estimated Nose-frequenzy (Omega)   =  0.10E-29 period in steps = 0.13E+47 mass=  -0.363E-26a.u.
   SCALEE = 1.0000    scale energy and forces
   NPACO  =    256;   APACO  = 16.0  distance and # of slots for P.C.
   PSTRESS=    0.0 pullay stress

  Mass of Ions in am
   POMASS =  22.99 16.00 35.45
  Ionic Valenz
   ZVAL   =   1.00  6.00  7.00
  Atomic Wigner-Seitz radii
   RWIGS  =  -1.00 -1.00 -1.00
  virtual crystal weights 
   VCA    =   1.00  1.00  1.00
   NELECT =     512.0000    total number of electrons
   NUPDOWN=      -1.0000    fix difference up-down

 DOS related values:
   EMIN   =  10.00;   EMAX   =-10.00  energy-range for DOS
   EFERMI =   0.00
   ISMEAR =     0;   SIGMA  =   0.10  broadening in eV -4-tet -1-fermi 0-gaus

 Electronic relaxation 2 (details)
   IALGO  =     68    algorithm
   LDIAG  =      T    sub-space diagonalisation (order eigenvalues)
   LSUBROT=      F    optimize rotation matrix (better conditioning)
   TURBO    =      0    0=normal 1=particle mesh
   IRESTART =      0    0=no restart 2=restart with 2 vectors
   NREBOOT  =      0    no. of reboots
   NMIN     =      0    reboot dimension
   EREF     =   0.00    reference energy to select bands
   IMIX   =      4    mixing-type and parameters
     AMIX     =   0.40;   BMIX     =  1.00
     AMIX_MAG =   1.60;   BMIX_MAG =  1.00
     AMIN     =   0.10
     WC   =   100.;   INIMIX=   1;  MIXPRE=   1;  MAXMIX= -45

 Intra band minimization:
   WEIMIN = 0.0010     energy-eigenvalue tresh-hold
   EBREAK =  0.73E-11  absolut break condition
   DEPER  =   0.30     relativ break condition  

   TIME   =   0.40     timestep for ELM

  volume/ion in A,a.u.               =      27.42       185.03
  Fermi-wavevector in a.u.,A,eV,Ry     =   0.800033  1.511843  8.708443  0.640052
  Thomas-Fermi vector in A             =   1.907251
 
 Write flags
   LWAVE        =      F    write WAVECAR
   LDOWNSAMPLE  =      F    k-point downsampling of WAVECAR
   LCHARG       =      F    write CHGCAR
   LVTOT        =      F    write LOCPOT, total local potential
   LVHAR        =      F    write LOCPOT, Hartree potential only
   LELF         =      F    write electronic localiz. function (ELF)
   LORBIT       =      0    0 simple, 1 ext, 2 COOP (PROOUT), +10 PAW based schemes


 Dipole corrections
   LMONO  =      F    monopole corrections only (constant potential shift)
   LDIPOL =      T    correct potential (dipole corrections)
   IDIPOL =      3    1-x, 2-y, 3-z, 4-all directions 
   EPSILON=  1.0000000 bulk dielectric constant

 Exchange correlation treatment:
   GGA     =    PE    GGA type
   LEXCH   =     8    internal setting for exchange type
   VOSKOWN=      0    Vosko Wilk Nusair interpolation
   LHFCALC =     F    Hartree Fock is set to
   LHFONE  =     F    Hartree Fock one center treatment
   AEXX    =    0.0000 exact exchange contribution

 Linear response parameters
   LEPSILON=     F    determine dielectric tensor
   LRPA    =     F    only Hartree local field effects (RPA)
   LNABLA  =     F    use nabla operator in PAW spheres
   LVEL    =     F    velocity operator in full k-point grid
   LINTERFAST=   F  fast interpolation
   KINTER  =     0    interpolate to denser k-point grid
   CSHIFT  =0.1000    complex shift for real part using Kramers Kronig
   OMEGAMAX=  -1.0    maximum frequency
   DEG_THRESHOLD= 0.2000000E-02 threshold for treating states as degnerate
   RTIME   =   -0.100 relaxation time in fs
  (WPLASMAI=    0.000 imaginary part of plasma frequency in eV, 0.658/RTIME)
   DFIELD  = 0.0000000 0.0000000 0.0000000 field for delta impulse in time
 
 Orbital magnetization related:
   ORBITALMAG=     F  switch on orbital magnetization
   LCHIMAG   =     F  perturbation theory with respect to B field
   DQ        =  0.001000  dq finite difference perturbation B field
   LLRAUG    =     F  two centre corrections for induced B field



--------------------------------------------------------------------------------------------------------


 conjugate gradient relaxation of ions
 charge density and potential will be updated during run
 non-spin polarized calculation
 RMM-DIIS sequential band-by-band and
  variant of blocked Davidson during initial phase
 perform sub-space diagonalisation
    before iterative eigenvector-optimisation
 modified Broyden-mixing scheme, WC =      100.0
 initial mixing is a Kerker type mixing with AMIX =  0.4000 and BMIX =      1.0000
 Hartree-type preconditioning will be used
 using additional bands           88
 real space projection scheme for non local part
 use partial core corrections
 calculate Harris-corrections to forces 
   (improved forces if not selfconsistent)
 use gradient corrections 
 use of overlap-Matrix (Vanderbilt PP)
 Gauss-broadening in eV      SIGMA  =   0.10


--------------------------------------------------------------------------------------------------------


  energy-cutoff  :      400.00
  volume of cell :     4387.03
      direct lattice vectors                 reciprocal lattice vectors
    -8.914756880  8.914756880  0.000000000     0.000000000  0.112173558  0.000000000
   -17.829513760  0.000000000  0.000000000    -0.056086779 -0.056086779  0.000000000
     0.000000000  0.000000000 27.600824368     0.000000000  0.000000000  0.036230802

  length of vectors
    12.607370085 17.829513760 27.600824368     0.112173558  0.079318684  0.036230802


 
 k-points in units of 2pi/SCALE and weight: read from INCAR                         
   0.00000000  0.00000000  0.00000000       0.500
   0.00000000  0.05608678  0.00000000       0.500
 
 k-points in reciprocal lattice and weights: read from INCAR                         
   0.00000000  0.00000000  0.00000000       0.500
   0.50000000  0.00000000  0.00000000       0.500
 
 position of ions in fractional coordinates (direct lattice) 
   0.25000009  0.00000000  0.29813200
   0.00000005  0.12500002  0.21738481
   0.25000009  0.00000000  0.45962639
   0.00000005  0.12500002  0.37887921
   0.25000009  0.00000000  0.62112079
   0.00000005  0.12500002  0.54037361
   0.25000009  0.00000000  0.78261519
   0.00000005  0.12500002  0.70186800
   0.25000009  0.12499998  0.21738481
   0.25000009  0.25000000  0.29813200
   0.00000005  0.37500002  0.21738481
   0.25000009  0.12499998  0.37887921
   0.25000009  0.25000000  0.45962639
   0.00000005  0.37500002  0.37887921
   0.25000009  0.12499998  0.54037361
   0.25000009  0.25000000  0.62112079
   0.00000005  0.37500002  0.54037361
   0.25000009  0.12499998  0.70186800
   0.25000009  0.25000000  0.78261519
   0.00000005  0.37500002  0.70186800
   0.25000009  0.37499998  0.21738481
   0.25000009  0.50000000  0.29813200
   0.00000005  0.62500002  0.21738481
   0.25000009  0.37499998  0.37887921
   0.25000009  0.50000000  0.45962639
   0.00000005  0.62500002  0.37887921
   0.25000009  0.37499998  0.54037361
   0.25000009  0.50000000  0.62112079
   0.00000005  0.62500002  0.54037361
   0.25000009  0.37499998  0.70186800
   0.25000009  0.50000000  0.78261519
   0.00000005  0.62500002  0.70186800
   0.25000009  0.62499998  0.21738481
   0.25000009  0.75000000  0.29813200
   0.00000005  0.87500002  0.21738481
   0.25000009  0.62499998  0.37887921
   0.25000009  0.75000000  0.45962639
   0.00000005  0.87500002  0.37887921
   0.25000009  0.62499998  0.54037361
   0.25000009  0.75000000  0.62112079
   0.00000005  0.87500002  0.54037361
   0.25000009  0.62499998  0.70186800
   0.25000009  0.75000000  0.78261519
   0.00000005  0.87500002  0.70186800
   0.25000009  0.87499998  0.21738481
   0.25000009  0.87499998  0.37887921
   0.25000009  0.87499998  0.54037361
   0.25000009  0.87499998  0.70186800
   0.75000009  0.00000000  0.29813200
   0.50000005  0.12500002  0.21738481
   0.75000009  0.00000000  0.45962639
   0.50000005  0.12500002  0.37887921
   0.75000009  0.00000000  0.62112079
   0.50000005  0.12500002  0.54037361
   0.75000009  0.00000000  0.78261519
   0.50000005  0.12500002  0.70186800
   0.75000009  0.12499998  0.21738481
   0.75000009  0.25000000  0.29813200
   0.50000005  0.37500002  0.21738481
   0.75000009  0.12499998  0.37887921
   0.75000009  0.25000000  0.45962639
   0.50000005  0.37500002  0.37887921
   0.75000009  0.12499998  0.54037361
   0.75000009  0.25000000  0.62112079
   0.50000005  0.37500002  0.54037361
   0.75000009  0.12499998  0.70186800
   0.75000009  0.25000000  0.78261519
   0.50000005  0.37500002  0.70186800
   0.75000009  0.37499998  0.21738481
   0.75000009  0.50000000  0.29813200
   0.50000005  0.62500002  0.21738481
   0.75000009  0.37499998  0.37887921
   0.75000009  0.50000000  0.45962639
   0.50000005  0.62500002  0.37887921
   0.75000009  0.37499998  0.54037361
   0.75000009  0.50000000  0.62112079
   0.50000005  0.62500002  0.54037361
   0.75000009  0.37499998  0.70186800
   0.75000009  0.50000000  0.78261519
   0.50000005  0.62500002  0.70186800
   0.75000009  0.62499998  0.21738481
   0.75000009  0.75000000  0.29813200
   0.50000005  0.87500002  0.21738481
   0.75000009  0.62499998  0.37887921
   0.75000009  0.75000000  0.45962639
   0.50000005  0.87500002  0.37887921
   0.75000009  0.62499998  0.54037361
   0.75000009  0.75000000  0.62112079
   0.50000005  0.87500002  0.54037361
   0.75000009  0.62499998  0.70186800
   0.75000009  0.75000000  0.78261519
   0.50000005  0.87500002  0.70186800
   0.75000009  0.87499998  0.21738481
   0.75000009  0.87499998  0.37887921
   0.75000009  0.87499998  0.54037361
   0.75000009  0.87499998  0.70186800
   0.25000009  0.00000000  0.21738481
   0.25000009  0.00000000  0.37887921
   0.25000009  0.00000000  0.54037361
   0.25000009  0.00000000  0.70186800
   0.25000009  0.25000000  0.21738481
   0.25000009  0.25000000  0.37887921
   0.25000009  0.25000000  0.54037361
   0.25000009  0.25000000  0.70186800
   0.25000009  0.50000000  0.21738481
   0.25000009  0.50000000  0.37887921
   0.25000009  0.50000000  0.54037361
   0.25000009  0.50000000  0.70186800
   0.25000009  0.75000000  0.21738481
   0.25000009  0.75000000  0.37887921
   0.25000009  0.75000000  0.54037361
   0.25000009  0.75000000  0.70186800
   0.75000009  0.00000000  0.21738481
   0.75000009  0.00000000  0.37887921
   0.75000009  0.00000000  0.54037361
   0.75000009  0.00000000  0.70186800
   0.75000009  0.25000000  0.21738481
   0.75000009  0.25000000  0.37887921
   0.75000009  0.25000000  0.54037361
   0.75000009  0.25000000  0.70186800
   0.75000009  0.50000000  0.21738481
   0.75000009  0.50000000  0.37887921
   0.75000009  0.50000000  0.54037361
   0.75000009  0.50000000  0.70186800
   0.75000009  0.75000000  0.21738481
   0.75000009  0.75000000  0.37887921
   0.75000009  0.75000000  0.54037361
   0.75000009  0.75000000  0.70186800
   0.00000005  0.00000000  0.29813200
   0.00000005  0.00000000  0.45962639
   0.00000005  0.00000000  0.62112079
   0.00000005  0.00000000  0.78261519
   0.00000005  0.25000000  0.29813200
   0.00000005  0.25000000  0.45962639
   0.00000005  0.25000000  0.62112079
   0.00000005  0.25000000  0.78261519
   0.00000005  0.50000000  0.29813200
   0.00000005  0.50000000  0.45962639
   0.00000005  0.50000000  0.62112079
   0.00000005  0.50000000  0.78261519
   0.00000005  0.75000000  0.29813200
   0.00000005  0.75000000  0.45962639
   0.00000005  0.75000000  0.62112079
   0.00000005  0.75000000  0.78261519
   0.50000005  0.00000000  0.29813200
   0.50000005  0.00000000  0.45962639
   0.50000005  0.00000000  0.62112079
   0.50000005  0.00000000  0.78261519
   0.50000005  0.25000000  0.29813200
   0.50000005  0.25000000  0.45962639
   0.50000005  0.25000000  0.62112079
   0.50000005  0.25000000  0.78261519
   0.50000005  0.50000000  0.29813200
   0.50000005  0.50000000  0.45962639
   0.50000005  0.50000000  0.62112079
   0.50000005  0.50000000  0.78261519
   0.50000005  0.75000000  0.29813200
   0.50000005  0.75000000  0.45962639
   0.50000005  0.75000000  0.62112079
   0.50000005  0.75000000  0.78261519
 
 position of ions in cartesian coordinates  (Angst):
  -2.22868998  2.22868998  8.22868900
  -2.22868998  0.00000045  6.00000000
  -2.22868998  2.22868998 12.68606727
  -2.22868998  0.00000045 10.45737855
  -2.22868998  2.22868998 17.14344582
  -2.22868998  0.00000045 14.91475710
  -2.22868998  2.22868998 21.60082437
  -2.22868998  0.00000045 19.37213537
  -4.45737889  2.22868998  6.00000000
  -6.68606842  2.22868998  8.22868900
  -6.68606842  0.00000045  6.00000000
  -4.45737889  2.22868998 10.45737855
  -6.68606842  2.22868998 12.68606727
  -6.68606842  0.00000045 10.45737855
  -4.45737889  2.22868998 14.91475710
  -6.68606842  2.22868998 17.14344582
  -6.68606842  0.00000045 14.91475710
  -4.45737889  2.22868998 19.37213537
  -6.68606842  2.22868998 21.60082437
  -6.68606842  0.00000045 19.37213537
  -8.91475733  2.22868998  6.00000000
 -11.14344686  2.22868998  8.22868900
 -11.14344686  0.00000045  6.00000000
  -8.91475733  2.22868998 10.45737855
 -11.14344686  2.22868998 12.68606727
 -11.14344686  0.00000045 10.45737855
  -8.91475733  2.22868998 14.91475710
 -11.14344686  2.22868998 17.14344582
 -11.14344686  0.00000045 14.91475710
  -8.91475733  2.22868998 19.37213537
 -11.14344686  2.22868998 21.60082437
 -11.14344686  0.00000045 19.37213537
 -13.37213577  2.22868998  6.00000000
 -15.60082530  2.22868998  8.22868900
 -15.60082530  0.00000045  6.00000000
 -13.37213577  2.22868998 10.45737855
 -15.60082530  2.22868998 12.68606727
 -15.60082530  0.00000045 10.45737855
 -13.37213577  2.22868998 14.91475710
 -15.60082530  2.22868998 17.14344582
 -15.60082530  0.00000045 14.91475710
 -13.37213577  2.22868998 19.37213537
 -15.60082530  2.22868998 21.60082437
 -15.60082530  0.00000045 19.37213537
 -17.82951421  2.22868998  6.00000000
 -17.82951421  2.22868998 10.45737855
 -17.82951421  2.22868998 14.91475710
 -17.82951421  2.22868998 19.37213537
  -6.68606842  6.68606842  8.22868900
  -6.68606842  4.45737889  6.00000000
  -6.68606842  6.68606842 12.68606727
  -6.68606842  4.45737889 10.45737855
  -6.68606842  6.68606842 17.14344582
  -6.68606842  4.45737889 14.91475710
  -6.68606842  6.68606842 21.60082437
  -6.68606842  4.45737889 19.37213537
  -8.91475733  6.68606842  6.00000000
 -11.14344686  6.68606842  8.22868900
 -11.14344686  4.45737889  6.00000000
  -8.91475733  6.68606842 10.45737855
 -11.14344686  6.68606842 12.68606727
 -11.14344686  4.45737889 10.45737855
  -8.91475733  6.68606842 14.91475710
 -11.14344686  6.68606842 17.14344582
 -11.14344686  4.45737889 14.91475710
  -8.91475733  6.68606842 19.37213537
 -11.14344686  6.68606842 21.60082437
 -11.14344686  4.45737889 19.37213537
 -13.37213577  6.68606842  6.00000000
 -15.60082530  6.68606842  8.22868900
 -15.60082530  4.45737889  6.00000000
 -13.37213577  6.68606842 10.45737855
 -15.60082530  6.68606842 12.68606727
 -15.60082530  4.45737889 10.45737855
 -13.37213577  6.68606842 14.91475710
 -15.60082530  6.68606842 17.14344582
 -15.60082530  4.45737889 14.91475710
 -13.37213577  6.68606842 19.37213537
 -15.60082530  6.68606842 21.60082437
 -15.60082530  4.45737889 19.37213537
 -17.82951421  6.68606842  6.00000000
 -20.05820374  6.68606842  8.22868900
 -20.05820374  4.45737889  6.00000000
 -17.82951421  6.68606842 10.45737855
 -20.05820374  6.68606842 12.68606727
 -20.05820374  4.45737889 10.45737855
 -17.82951421  6.68606842 14.91475710
 -20.05820374  6.68606842 17.14344582
 -20.05820374  4.45737889 14.91475710
 -17.82951421  6.68606842 19.37213537
 -20.05820374  6.68606842 21.60082437
 -20.05820374  4.45737889 19.37213537
 -22.28689265  6.68606842  6.00000000
 -22.28689265  6.68606842 10.45737855
 -22.28689265  6.68606842 14.91475710
 -22.28689265  6.68606842 19.37213537
  -2.22868998  2.22868998  6.00000000
  -2.22868998  2.22868998 10.45737855
  -2.22868998  2.22868998 14.91475710
  -2.22868998  2.22868998 19.37213537
  -6.68606842  2.22868998  6.00000000
  -6.68606842  2.22868998 10.45737855
  -6.68606842  2.22868998 14.91475710
  -6.68606842  2.22868998 19.37213537
 -11.14344686  2.22868998  6.00000000
 -11.14344686  2.22868998 10.45737855
 -11.14344686  2.22868998 14.91475710
 -11.14344686  2.22868998 19.37213537
 -15.60082530  2.22868998  6.00000000
 -15.60082530  2.22868998 10.45737855
 -15.60082530  2.22868998 14.91475710
 -15.60082530  2.22868998 19.37213537
  -6.68606842  6.68606842  6.00000000
  -6.68606842  6.68606842 10.45737855
  -6.68606842  6.68606842 14.91475710
  -6.68606842  6.68606842 19.37213537
 -11.14344686  6.68606842  6.00000000
 -11.14344686  6.68606842 10.45737855
 -11.14344686  6.68606842 14.91475710
 -11.14344686  6.68606842 19.37213537
 -15.60082530  6.68606842  6.00000000
 -15.60082530  6.68606842 10.45737855
 -15.60082530  6.68606842 14.91475710
 -15.60082530  6.68606842 19.37213537
 -20.05820374  6.68606842  6.00000000
 -20.05820374  6.68606842 10.45737855
 -20.05820374  6.68606842 14.91475710
 -20.05820374  6.68606842 19.37213537
  -0.00000045  0.00000045  8.22868900
  -0.00000045  0.00000045 12.68606727
  -0.00000045  0.00000045 17.14344582
  -0.00000045  0.00000045 21.60082437
  -4.45737889  0.00000045  8.22868900
  -4.45737889  0.00000045 12.68606727
  -4.45737889  0.00000045 17.14344582
  -4.45737889  0.00000045 21.60082437
  -8.91475733  0.00000045  8.22868900
  -8.91475733  0.00000045 12.68606727
  -8.91475733  0.00000045 17.14344582
  -8.91475733  0.00000045 21.60082437
 -13.37213577  0.00000045  8.22868900
 -13.37213577  0.00000045 12.68606727
 -13.37213577  0.00000045 17.14344582
 -13.37213577  0.00000045 21.60082437
  -4.45737889  4.45737889  8.22868900
  -4.45737889  4.45737889 12.68606727
  -4.45737889  4.45737889 17.14344582
  -4.45737889  4.45737889 21.60082437
  -8.91475733  4.45737889  8.22868900
  -8.91475733  4.45737889 12.68606727
  -8.91475733  4.45737889 17.14344582
  -8.91475733  4.45737889 21.60082437
 -13.37213577  4.45737889  8.22868900
 -13.37213577  4.45737889 12.68606727
 -13.37213577  4.45737889 17.14344582
 -13.37213577  4.45737889 21.60082437
 -17.82951421  4.45737889  8.22868900
 -17.82951421  4.45737889 12.68606727
 -17.82951421  4.45737889 17.14344582
 -17.82951421  4.45737889 21.60082437
 


--------------------------------------------------------------------------------------------------------


 k-point   1 :   0.0000 0.0000 0.0000  plane waves:   79659
 k-point   2 :   0.5000 0.0000 0.0000  plane waves:   79508

 maximum and minimum number of plane-waves per node :      5003     4961

 maximum number of plane-waves:     79659
 maximum index in each direction: 
   IXMAX=   20   IYMAX=   29   IZMAX=   45
   IXMIN=  -21   IYMIN=  -29   IZMIN=  -45


 real space projection operators:
  total allocation   :      11440.06 KBytes
  max/ min on nodes  :        955.44        367.94


 parallel 3D FFT for wavefunctions:
    minimum data exchange during FFTs selected (reduces bandwidth)
 parallel 3D FFT for charge:
    minimum data exchange during FFTs selected (reduces bandwidth)


 total amount of memory used by VASP MPI-rank0    52339. kBytes
=======================================================================

   base      :      30000. kBytes
   nonlr-proj:       6759. kBytes
   fftplans  :       3331. kBytes
   grid      :       5273. kBytes
   one-center:         30. kBytes
   wavefun   :       6946. kBytes
 
     INWAV:  cpu time    0.0001: real time    0.0001
 Broyden mixing: mesh for mixing (old mesh)
   NGX = 41   NGY = 59   NGZ = 91
  (NGX  =128   NGY  =180   NGZ  =280)
  gives a total of 220129 points

 initial charge density was supplied:
 charge density of overlapping atoms calculated
 number of electron     512.0000000 magnetization 
 keeping initial charge density in first step


--------------------------------------------------------------------------------------------------------


 Maximum index for non-local projection operator          152
 Maximum index for augmentation-charges          408 (set IRDMAX)


--------------------------------------------------------------------------------------------------------


 First call to EWALD:  gamma=   0.108
 Maximum number of real-space cells 5x 3x 2
 Maximum number of reciprocal cells 2x 3x 4

    FEWALD:  cpu time    0.0208: real time    0.0208


--------------------------------------- Iteration      1(   1)  ---------------------------------------


    POTLOK:  cpu time    0.0428: real time    0.0656
    SETDIJ:  cpu time    0.0862: real time    0.0875
     EDDAV:  cpu time    4.2763: real time    4.3565
       DOS:  cpu time    0.0071: real time    0.0076
    --------------------------------------------
      LOOP:  cpu time    4.4124: real time    4.5172

 eigenvalue-minimisations  :  1432
 total energy-change (2. order) : 0.4246349E+04  (-0.1548292E+05)
 number of electron     512.0000000 magnetization 
 augmentation part      512.0000000 magnetization 

 DIPCOR: dipole corrections for dipol
 direction  3 min pos   280,
 dipolmoment           0.000000      0.000000      0.009349 electrons x Angstroem
 Tr[quadrupol]    -22275.770921

 energy correction for charged system         0.000000 eV
 dipol+quadrupol energy correction           -0.000002 eV
 added-field ion interaction         -0.019464 eV  (added to PSCEN)


 Free energy of the ion-electron system (eV)
  ---------------------------------------------------
  alpha Z        PSCENC =        -6.06082711
  Ewald energy   TEWEN  =     26346.76587164
  -Hartree energ DENC   =    -51244.38893002
  -exchange      EXHF   =         0.00000000
  -V(xc)+E(xc)   XCENC  =     -1990.06165094
  PAW double counting   =     25326.51111861   -21786.89270365
  entropy T*S    EENTRO =        -0.16125135
  eigenvalues    EBANDS =       162.09909763
  atomic energy  EATOM  =     27438.53791910
  Solvation  Ediel_sol  =         0.00000000
  ---------------------------------------------------
  free energy    TOTEN  =      4246.34864390 eV

  energy without entropy =     4246.50989525  energy(sigma->0) =     4246.42926958


--------------------------------------------------------------------------------------------------------




--------------------------------------- Iteration      1(   2)  ---------------------------------------


     EDDAV:  cpu time    5.0975: real time    5.1688
       DOS:  cpu time    0.0018: real time    0.0018
    --------------------------------------------
      LOOP:  cpu time    5.0992: real time    5.1705

 eigenvalue-minimisations  :  1832
 total energy-change (2. order) :-0.3910034E+04  (-0.3758165E+04)
 number of electron     512.0000000 magnetization 
 augmentation part      512.0000000 magnetization 

 DIPCOR: dipole corrections for dipol
 direction  3 min pos   280,
 dipolmoment           0.000000      0.000000      0.009349 electrons x Angstroem
 Tr[quadrupol]    -22275.770921

 energy correction for charged system         0.000000 eV
 dipol+quadrupol energy correction           -0.000002 eV
 added-field ion interaction         -0.019464 eV  (added to PSCEN)


 Free energy of the ion-electron system (eV)
  ---------------------------------------------------
  alpha Z        PSCENC =        -6.06082711
  Ewald energy   TEWEN  =     26346.76587164
  -Hartree energ DENC   =    -51244.38893002
  -exchange      EXHF   =         0.00000000
  -V(xc)+E(xc)   XCENC  =     -1990.06165094
  PAW double counting   =     25326.51111861   -21786.89270365
  entropy T*S    EENTRO =        -0.00000000
  eigenvalues    EBANDS =     -3748.09637852
  atomic energy  EATOM  =     27438.53791910
  Solvation  Ediel_sol  =         0.00000000
  ---------------------------------------------------
  free energy    TOTEN  =       336.31441911 eV

  energy without entropy =      336.31441911  energy(sigma->0) =      336.31441911


--------------------------------------------------------------------------------------------------------




--------------------------------------- Iteration      1(   3)  ---------------------------------------


     EDDAV:  cpu time    5.3464: real time    5.4129
       DOS:  cpu time    0.0396: real time    0.0947
    --------------------------------------------
      LOOP:  cpu time    5.3860: real time    5.5077

 eigenvalue-minimisations  :  1960
 total energy-change (2. order) :-0.1040953E+04  (-0.1034731E+04)
 number of electron     512.0000000 magnetization 
 augmentation part      512.0000000 magnetization 

 DIPCOR: dipole corrections for dipol
 direction  3 min pos   280,
 dipolmoment           0.000000      0.000000      0.009349 electrons x Angstroem
 Tr[quadrupol]    -22275.770921

 energy correction for charged system         0.000000 eV
 dipol+quadrupol energy correction           -0.000002 eV
 added-field ion interaction         -0.019464 eV  (added to PSCEN)


 Free energy of the ion-electron system (eV)
  ---------------------------------------------------
  alpha Z        PSCENC =        -6.06082711
  Ewald energy   TEWEN  =     26346.76587164
  -Hartree energ DENC   =    -51244.38893002
  -exchange      EXHF   =         0.00000000
  -V(xc)+E(xc)   XCENC  =     -1990.06165094
  PAW double counting   =     25326.51111861   -21786.89270365
  entropy T*S    EENTRO =        -0.00000000
  eigenvalues    EBANDS =     -4789.04949518
  atomic energy  EATOM  =     27438.53791910
  Solvation  Ediel_sol  =         0.00000000
  ---------------------------------------------------
  free energy    TOTEN  =      -704.63869755 eV

  energy without entropy =     -704.63869755  energy(sigma->0) =     -704.63869755


--------------------------------------------------------------------------------------------------------




--------------------------------------- Iteration      1(   4)  ---------------------------------------


     EDDAV:  cpu time    4.7751: real time    4.8413
       DOS:  cpu time    0.0014: real time    0.0014
    --------------------------------------------
      LOOP:  cpu time    4.7765: real time    4.8427

 eigenvalue-minimisations  :  1616
 total energy-change (2. order) :-0.3165218E+02  (-0.3156270E+02)
 number of electron     512.0000000 magnetization 
 augmentation part      512.0000000 magnetization 

 DIPCOR: dipole corrections for dipol
 direction  3 min pos   280,
 dipolmoment           0.000000      0.000000      0.009349 electrons x Angstroem
 Tr[quadrupol]    -22275.770921

 energy correction for charged system         0.000000 eV
 dipol+quadrupol energy correction           -0.000002 eV
 added-field ion interaction         -0.019464 eV  (added to PSCEN)


 Free energy of the ion-electron system (eV)
  ---------------------------------------------------
  alpha Z        PSCENC =        -6.06082711
  Ewald energy   TEWEN  =     26346.76587164
  -Hartree energ DENC   =    -51244.38893002
  -exchange      EXHF   =         0.00000000
  -V(xc)+E(xc)   XCENC  =     -1990.06165094
  PAW double counting   =     25326.51111861   -21786.89270365
  entropy T*S    EENTRO =        -0.00000000
  eigenvalues    EBANDS =     -4820.70167639
  atomic energy  EATOM  =     27438.53791910
  Solvation  Ediel_sol  =         0.00000000
  ---------------------------------------------------
  free energy    TOTEN  =      -736.29087876 eV

  energy without entropy =     -736.29087876  energy(sigma->0) =     -736.29087876


--------------------------------------------------------------------------------------------------------




--------------------------------------- Iteration      1(   5)  ---------------------------------------


     EDDAV:  cpu time    5.0920: real time    5.2073
       DOS:  cpu time    0.0016: real time    0.0017
    CHARGE:  cpu time    0.1169: real time    0.1169
    MIXING:  cpu time    0.0049: real time    0.0059
    --------------------------------------------
      LOOP:  cpu time    5.2154: real time    5.3319

 eigenvalue-minimisations  :  1864
 total energy-change (2. order) :-0.1079451E+01  (-0.1078878E+01)
 number of electron     511.9999752 magnetization 
 augmentation part       -2.0246229 magnetization 

 DIPCOR: dipole corrections for dipol
 direction  3 min pos   280,
 dipolmoment           0.000000      0.000000      0.009349 electrons x Angstroem
 Tr[quadrupol]    -22275.770921

 energy correction for charged system         0.000000 eV
 dipol+quadrupol energy correction           -0.000002 eV
 added-field ion interaction         -0.019464 eV  (added to PSCEN)


 Broyden mixing:
  rms(total) = 0.59818E+01    rms(broyden)= 0.59799E+01
  rms(prec ) = 0.64276E+01
  weight for this iteration     100.00

 Free energy of the ion-electron system (eV)
  ---------------------------------------------------
  alpha Z        PSCENC =        -6.06082711
  Ewald energy   TEWEN  =     26346.76587164
  -Hartree energ DENC   =    -51244.38893002
  -exchange      EXHF   =         0.00000000
  -V(xc)+E(xc)   XCENC  =     -1990.06165094
  PAW double counting   =     25326.51111861   -21786.89270365
  entropy T*S    EENTRO =        -0.00000000
  eigenvalues    EBANDS =     -4821.78112783
  atomic energy  EATOM  =     27438.53791910
  Solvation  Ediel_sol  =         0.00000000
  ---------------------------------------------------
  free energy    TOTEN  =      -737.37033020 eV

  energy without entropy =     -737.37033020  energy(sigma->0) =     -737.37033020


--------------------------------------------------------------------------------------------------------




--------------------------------------- Iteration      1(   6)  ---------------------------------------


    POTLOK:  cpu time    0.0396: real time    0.0396
    SETDIJ:  cpu time    0.0890: real time    0.0890
    EDDIAG:  cpu time    0.6401: real time    0.6462
  RMM-DIIS:  cpu time    1.7062: real time    1.7119
    ORTHCH:  cpu time    0.3862: real time    0.3861
       DOS:  cpu time    0.0006: real time    0.0006
    CHARGE:  cpu time    0.1344: real time    0.1348
    MIXING:  cpu time    0.0043: real time    0.0046
    --------------------------------------------
      LOOP:  cpu time    3.0004: real time    3.0129

 eigenvalue-minimisations  :  1376
 total energy-change (2. order) : 0.1579834E+03  (-0.5664909E+02)
 number of electron     511.9999766 magnetization 
 augmentation part       -8.8299275 magnetization 

 DIPCOR: dipole corrections for dipol
 direction  3 min pos   280,
 dipolmoment           0.000000      0.000000     -0.154309 electrons x Angstroem
 Tr[quadrupol]    -22294.279392

 energy correction for charged system         0.000000 eV
 dipol+quadrupol energy correction           -0.000491 eV
 added-field ion interaction          0.321270 eV  (added to PSCEN)


 Broyden mixing:
  rms(total) = 0.22921E+01    rms(broyden)= 0.22886E+01
  rms(prec ) = 0.23912E+01
  weight for this iteration     100.00

 eigenvalues of (default mixing * dielectric matrix)
  average eigenvalue GAMMA=   0.7997
  0.7997

 Free energy of the ion-electron system (eV)
  ---------------------------------------------------
  alpha Z        PSCENC =        -5.72058179
  Ewald energy   TEWEN  =     26346.76587164
  -Hartree energ DENC   =    -52574.37123731
  -exchange      EXHF   =         0.00000000
  -V(xc)+E(xc)   XCENC  =     -1907.56440142
  PAW double counting   =     29489.70184537   -25968.46259129
  entropy T*S    EENTRO =        -0.00000000
  eigenvalues    EBANDS =     -3398.27372900
  atomic energy  EATOM  =     27438.53791910
  Solvation  Ediel_sol  =         0.00000000
  ---------------------------------------------------
  free energy    TOTEN  =      -579.38690471 eV

  energy without entropy =     -579.38690471  energy(sigma->0) =     -579.38690471


--------------------------------------------------------------------------------------------------------




--------------------------------------- Iteration      1(   7)  ---------------------------------------


    POTLOK:  cpu time    0.1871: real time    0.2530
    SETDIJ:  cpu time    0.0893: real time    0.1411
    EDDIAG:  cpu time    0.7173: real time    0.7177
  RMM-DIIS:  cpu time    1.3475: real time    1.3493
    ORTHCH:  cpu time    0.2291: real time    0.2291
       DOS:  cpu time    0.0034: real time    0.0034
    CHARGE:  cpu time    0.1146: real time    0.1146
    MIXING:  cpu time    0.0012: real time    0.0012
    --------------------------------------------
      LOOP:  cpu time    2.6896: real time    2.8095

 eigenvalue-minimisations  :  1560
 total energy-change (2. order) :-0.1476360E+01  (-0.1014924E+02)
 number of electron     511.9999768 magnetization 
 augmentation part       -9.6396464 magnetization 

 DIPCOR: dipole corrections for dipol
 direction  3 min pos   280,
 dipolmoment           0.000000      0.000000     -0.157998 electrons x Angstroem
 Tr[quadrupol]    -22307.652130

 energy correction for charged system         0.000000 eV
 dipol+quadrupol energy correction           -0.000515 eV
 added-field ion interaction          0.328951 eV  (added to PSCEN)


 Broyden mixing:
  rms(total) = 0.18108E+01    rms(broyden)= 0.18105E+01
  rms(prec ) = 0.18765E+01
[...]
   0.160E-02 0.339E-02 -.263E+03   -.151E-02 -.311E-02 0.263E+03   -.680E-04 -.309E-03 0.900E-03   -.402E-04 -.910E-04 0.580E-03
   0.620E-03 0.826E-03 -.597E+03   -.571E-03 -.766E-03 0.597E+03   -.435E-04 -.396E-04 -.261E+00   -.264E-04 -.352E-04 -.111E-02
   -.435E-03 0.396E-02 0.441E+03   0.511E-03 -.389E-02 -.441E+03   -.801E-04 -.122E-03 -.117E-01   -.263E-04 -.207E-04 -.295E-03
   0.121E-02 0.860E-02 0.899E+02   -.119E-02 -.820E-02 -.899E+02   0.728E-05 -.560E-03 -.502E-02   -.361E-04 -.773E-04 0.229E-02
   -.981E-03 0.557E-02 -.263E+03   0.120E-02 -.545E-02 0.263E+03   -.230E-03 -.101E-03 -.556E-02   -.340E-04 -.809E-04 0.707E-03
   -.240E-03 -.104E-03 -.597E+03   0.266E-03 0.164E-03 0.597E+03   -.147E-04 -.514E-04 -.257E+00   -.164E-04 -.256E-04 -.180E-02
   -.225E-03 0.200E-02 0.441E+03   0.263E-03 -.171E-02 -.441E+03   -.811E-04 -.460E-03 -.114E-01   0.677E-05 0.140E-05 -.468E-03
   0.914E-03 -.102E-02 0.899E+02   -.104E-02 0.108E-02 -.899E+02   0.719E-04 -.189E-03 -.333E-02   0.530E-04 0.678E-04 0.237E-02
   -.225E-03 -.354E-02 -.263E+03   0.855E-04 0.340E-02 0.263E+03   0.988E-04 0.153E-03 0.536E-03   0.615E-04 0.516E-04 0.489E-03
   -.101E-02 -.111E-02 -.597E+03   0.986E-03 0.109E-02 0.597E+03   0.194E-05 -.156E-05 -.261E+00   0.231E-04 0.137E-04 -.115E-02
   -.401E-03 0.379E-02 0.441E+03   0.457E-03 -.374E-02 -.441E+03   -.873E-04 -.136E-03 -.118E-01   -.372E-05 0.100E-05 -.331E-03
   -.219E-03 0.711E-03 0.899E+02   0.486E-04 -.727E-03 -.899E+02   0.137E-03 -.847E-04 -.534E-02   0.580E-04 0.492E-04 0.220E-02
   -.918E-03 -.477E-02 -.263E+03   0.780E-03 0.464E-02 0.263E+03   0.790E-04 0.118E-03 -.506E-02   0.720E-04 0.740E-04 0.796E-03
   -.243E-03 -.421E-03 -.597E+03   0.238E-03 0.447E-03 0.597E+03   -.156E-04 -.491E-04 -.257E+00   0.106E-04 0.399E-05 -.177E-02
   -.511E-03 0.144E-02 0.441E+03   0.570E-03 -.114E-02 -.441E+03   -.858E-04 -.453E-03 -.114E-01   -.860E-05 -.153E-04 -.504E-03
   0.154E-02 0.352E-02 0.899E+02   -.150E-02 -.310E-02 -.899E+02   -.125E-04 -.594E-03 -.375E-02   -.462E-04 -.497E-04 0.227E-02
   0.163E-02 0.337E-02 -.263E+03   -.154E-02 -.309E-02 0.263E+03   -.676E-04 -.310E-03 0.899E-03   -.404E-04 -.906E-04 0.581E-03
   0.620E-03 0.813E-03 -.597E+03   -.570E-03 -.752E-03 0.597E+03   -.437E-04 -.401E-04 -.261E+00   -.267E-04 -.344E-04 -.111E-02
   -.444E-03 0.394E-02 0.441E+03   0.519E-03 -.387E-02 -.441E+03   -.804E-04 -.122E-03 -.117E-01   -.255E-04 -.211E-04 -.295E-03
   0.120E-02 0.857E-02 0.899E+02   -.117E-02 -.817E-02 -.899E+02   0.678E-05 -.560E-03 -.503E-02   -.370E-04 -.770E-04 0.229E-02
   -.995E-03 0.555E-02 -.263E+03   0.121E-02 -.543E-02 0.263E+03   -.230E-03 -.101E-03 -.556E-02   -.348E-04 -.798E-04 0.707E-03
   -.215E-03 -.901E-04 -.597E+03   0.240E-03 0.149E-03 0.597E+03   -.136E-04 -.508E-04 -.257E+00   -.167E-04 -.246E-04 -.180E-02
   -.214E-03 0.198E-02 0.441E+03   0.252E-03 -.169E-02 -.441E+03   -.807E-04 -.460E-03 -.114E-01   0.620E-05 0.220E-05 -.467E-03
   0.924E-03 -.104E-02 0.899E+02   -.105E-02 0.109E-02 -.899E+02   0.719E-04 -.189E-03 -.333E-02   0.533E-04 0.681E-04 0.237E-02
   -.220E-03 -.354E-02 -.263E+03   0.797E-04 0.340E-02 0.263E+03   0.989E-04 0.153E-03 0.536E-03   0.624E-04 0.508E-04 0.489E-03
   -.106E-02 -.106E-02 -.597E+03   0.104E-02 0.105E-02 0.597E+03   0.906E-06 -.742E-06 -.261E+00   0.238E-04 0.135E-04 -.115E-02
 -----------------------------------------------------------------------------------------------
   -.208E-01 -.835E-02 -.405E+02   0.870E-13 -.182E-12 0.455E-12   0.392E-01 0.395E-01 0.403E+02   -.287E-03 0.817E-03 0.329E-03
 
 
 POSITION                                       TOTAL-FORCE (eV/Angst)
 -----------------------------------------------------------------------------------
     -2.22865      2.22871      8.16487        -0.000246     -0.000302      0.000971
     -2.22809     -0.00175      5.87719         0.001912      0.005669     -0.001083
     -2.22868      2.22871     12.68543        -0.000197     -0.000367     -0.003309
     -2.25006     -0.00023     10.42604        -0.002555      0.000922     -0.001034
     -2.22865      2.22871     17.19769        -0.000111     -0.000226     -0.003865
     -2.22429     -0.00196     14.94337         0.002014     -0.002323     -0.001565
     -2.22865      2.22873     21.67306        -0.000062     -0.000153      0.006989
     -2.21484     -0.00062     19.46109         0.004236     -0.001476      0.004532
     -4.45674      2.23044      5.87682         0.003248     -0.003902      0.000999
     -6.68603      2.22872      8.16700        -0.000048     -0.000276      0.002264
     -6.68660      0.00186      5.87719        -0.003247     -0.006101     -0.000278
     -4.45659      2.25152     10.41982        -0.002868      0.003700     -0.004299
     -6.68618      2.22869     12.68429        -0.000125     -0.000288      0.002797
     -6.66481     -0.00005     10.42604         0.005497      0.005690     -0.000903
     -4.45584      2.22558     14.94294        -0.000777     -0.000202     -0.001103
     -6.68603      2.22871     17.19998        -0.000005     -0.000135      0.001890
     -6.69060      0.00199     14.94337        -0.001019      0.001376     -0.001341
     -4.45738      2.21372     19.45933         0.001012     -0.001476     -0.002253
     -6.68604      2.22872     21.68004        -0.000077     -0.000157     -0.008921
     -6.69989      0.00068     19.46108        -0.004342      0.001171      0.004492
     -8.91567      2.22693      5.87705        -0.000387      0.003669     -0.000407
    -11.14340      2.22872      8.16488        -0.000225     -0.000281      0.000887
    -11.14285     -0.00175      5.87719         0.001911      0.005674     -0.001084
     -8.91553      2.20582     10.41978         0.002731     -0.004056     -0.003591
    -11.14340      2.22870     12.68545         0.000008     -0.000292     -0.003537
    -11.16482     -0.00022     10.42605        -0.002552      0.000878     -0.001117
     -8.91643      2.23192     14.94299         0.001047      0.000000     -0.001027
    -11.14335      2.22860     17.19760        -0.000262      0.000979     -0.002688
    -11.13905     -0.00197     14.94336         0.002004     -0.002381     -0.001660
     -8.91468      2.24371     19.45930        -0.001145      0.001217     -0.002229
    -11.14342      2.22872     21.67308        -0.000069     -0.000158      0.006921
    -11.12959     -0.00063     19.46108         0.004218     -0.001467      0.004597
    -13.37150      2.23044      5.87682         0.003255     -0.003902      0.000998
    -15.60078      2.22873      8.16698        -0.000043     -0.000274      0.002225
    -15.60136      0.00186      5.87719        -0.003252     -0.006111     -0.000289
    -13.37131      2.25153     10.41982        -0.002898      0.003714     -0.004441
    -15.60079      2.22869     12.68426        -0.000113     -0.000397      0.002550
    -15.57956     -0.00006     10.42602         0.005410      0.005652     -0.000953
    -13.37059      2.22558     14.94294        -0.000645     -0.000201     -0.001074
    -15.60082      2.22872     17.19995        -0.000194     -0.000210      0.002022
    -15.60532      0.00200     14.94338        -0.001189      0.000820     -0.001326
    -13.37216      2.21371     19.45932         0.001086     -0.001482     -0.002250
    -15.60080      2.22872     21.68002        -0.000099     -0.000179     -0.008838
    -15.61464      0.00069     19.46107        -0.004414      0.001138      0.004536
    -17.83043      2.22693      5.87705        -0.000396      0.003665     -0.000415
    -17.83029      2.20582     10.41979         0.002738     -0.004131     -0.003558
    -17.83101      2.23191     14.94282        -0.000715     -0.000232     -0.001162
    -17.82944      2.24372     19.45930        -0.001218      0.001138     -0.002231
     -6.68603      6.68609      8.16487        -0.000246     -0.000302      0.000970
     -6.68547      4.45563      5.87719         0.001912      0.005669     -0.001083
     -6.68606      6.68609     12.68543        -0.000197     -0.000367     -0.003310
     -6.70744      4.45715     10.42604        -0.002555      0.000922     -0.001034
     -6.68603      6.68609     17.19769        -0.000110     -0.000228     -0.003866
     -6.68167      4.45541     14.94337         0.002014     -0.002323     -0.001566
     -6.68603      6.68611     21.67306        -0.000062     -0.000151      0.006988
     -6.67221      4.45676     19.46109         0.004236     -0.001476      0.004533
     -8.91412      6.68782      5.87681         0.003249     -0.003902      0.000997
    -11.14340      6.68610      8.16699        -0.000048     -0.000277      0.002262
    -11.14398      4.45924      5.87719        -0.003247     -0.006101     -0.000279
     -8.91397      6.70890     10.41982        -0.002868      0.003701     -0.004300
    -11.14356      6.68607     12.68429        -0.000125     -0.000287      0.002797
    -11.12219      4.45733     10.42604         0.005497      0.005691     -0.000904
     -8.91321      6.68296     14.94294        -0.000777     -0.000202     -0.001103
    -11.14341      6.68609     17.19998        -0.000005     -0.000136      0.001890
    -11.14798      4.45936     14.94337        -0.001019      0.001376     -0.001341
     -8.91476      6.67110     19.45933         0.001012     -0.001477     -0.002253
    -11.14341      6.68610     21.68004        -0.000076     -0.000155     -0.008921
    -11.15727      4.45806     19.46109        -0.004342      0.001171      0.004495
    -13.37305      6.68431      5.87705        -0.000387      0.003670     -0.000409
    -15.60078      6.68609      8.16488        -0.000225     -0.000282      0.000887
    -15.60022      4.45563      5.87719         0.001911      0.005674     -0.001084
    -13.37291      6.66319     10.41978         0.002731     -0.004056     -0.003593
    -15.60078      6.68607     12.68545         0.000009     -0.000292     -0.003537
    -15.62220      4.45716     10.42605        -0.002552      0.000878     -0.001117
    -13.37381      6.68930     14.94299         0.001047      0.000001     -0.001027
    -15.60073      6.68598     17.19760        -0.000262      0.000978     -0.002688
    -15.59643      4.45541     14.94336         0.002004     -0.002382     -0.001660
    -13.37206      6.70109     19.45930        -0.001145      0.001217     -0.002228
    -15.60079      6.68611     21.67308        -0.000069     -0.000156      0.006921
    -15.58697      4.45675     19.46108         0.004218     -0.001467      0.004598
    -17.82887      6.68782      5.87681         0.003256     -0.003902      0.000997
    -20.05816      6.68610      8.16698        -0.000043     -0.000275      0.002225
    -20.05874      4.45924      5.87719        -0.003252     -0.006111     -0.000290
    -17.82869      6.70891     10.41982        -0.002898      0.003714     -0.004441
    -20.05817      6.68607     12.68427        -0.000113     -0.000397      0.002551
    -20.03694      4.45732     10.42602         0.005410      0.005652     -0.000953
    -17.82797      6.68296     14.94294        -0.000645     -0.000201     -0.001074
    -20.05819      6.68610     17.19995        -0.000194     -0.000211      0.002023
    -20.06270      4.45937     14.94338        -0.001190      0.000820     -0.001326
    -17.82954      6.67109     19.45932         0.001086     -0.001483     -0.002249
    -20.05818      6.68610     21.68002        -0.000099     -0.000177     -0.008837
    -20.07202      4.45806     19.46107        -0.004414      0.001138      0.004540
    -22.28781      6.68431      5.87705        -0.000396      0.003665     -0.000416
    -22.28767      6.66320     10.41979         0.002738     -0.004131     -0.003558
    -22.28839      6.68929     14.94282        -0.000714     -0.000232     -0.001162
    -22.28682      6.70110     19.45930        -0.001218      0.001137     -0.002230
     -2.22866      2.22871      5.92218        -0.001014     -0.000048      0.003567
     -2.22868      2.22847     10.42617        -0.000135      0.000556     -0.002027
     -2.22882      2.22867     14.94185         0.000986      0.000159      0.002475
     -2.22867      2.22871     19.45704        -0.000023     -0.000104     -0.007167
     -6.68604      2.22873      5.92296        -0.000958     -0.000183      0.005911
     -6.68606      2.22848     10.42675        -0.000205      0.000464     -0.002471
     -6.68604      2.22873     14.94247        -0.000777     -0.000428      0.001888
     -6.68603      2.22872     19.45907        -0.000271     -0.000198      0.000237
    -11.14341      2.22872      5.92219        -0.001023     -0.000059      0.003582
    -11.14342      2.22849     10.42616        -0.000213      0.000481     -0.001824
    -11.14338      2.22871     14.94182        -0.000995     -0.000356      0.002550
    -11.14342      2.22872     19.45703        -0.000131     -0.000244     -0.007318
    -15.60079      2.22873      5.92295        -0.000943     -0.000167      0.005891
    -15.60081      2.22848     10.42671        -0.000072      0.000566     -0.002242
    -15.60095      2.22867     14.94244         0.000969      0.000114      0.001874
    -15.60081      2.22871     19.45908        -0.000016     -0.000097     -0.000128
     -6.68603      6.68609      5.92218        -0.001014     -0.000048      0.003567
     -6.68606      6.68585     10.42617        -0.000135      0.000555     -0.002027
     -6.68620      6.68605     14.94185         0.000986      0.000159      0.002475
     -6.68605      6.68609     19.45704        -0.000022     -0.000105     -0.007168
    -11.14341      6.68611      5.92296        -0.000958     -0.000183      0.005910
    -11.14343      6.68586     10.42675        -0.000205      0.000465     -0.002472
    -11.14342      6.68610     14.94246        -0.000777     -0.000428      0.001888
    -11.14341      6.68610     19.45907        -0.000271     -0.000198      0.000237
    -15.60079      6.68609      5.92219        -0.001023     -0.000059      0.003582
    -15.60080      6.68587     10.42616        -0.000213      0.000481     -0.001824
    -15.60076      6.68609     14.94182        -0.000995     -0.000356      0.002549
    -15.60080      6.68609     19.45703        -0.000131     -0.000244     -0.007318
    -20.05817      6.68611      5.92295        -0.000942     -0.000167      0.005890
    -20.05818      6.68585     10.42671        -0.000072      0.000566     -0.002242
    -20.05833      6.68605     14.94244         0.000969      0.000114      0.001874
    -20.05819      6.68608     19.45908        -0.000016     -0.000096     -0.000127
      0.00002      0.00002      8.13138        -0.000149     -0.000278      0.003411
      0.00000      0.00001     12.68388        -0.000090     -0.000252     -0.003223
      0.00001     -0.00000     17.19602        -0.000100     -0.000141      0.000796
      0.00002      0.00002     21.65682        -0.000124     -0.000220      0.003981
     -4.45736      0.00002      8.13243        -0.000150     -0.000367      0.002721
     -4.45739      0.00001     12.68354        -0.000126     -0.000425     -0.002571
     -4.45739      0.00004     17.19463        -0.000130     -0.000321      0.001024
     -4.45736      0.00002     21.65900        -0.000134     -0.000214      0.003559
     -8.91473      0.00002      8.13138        -0.000144     -0.000271      0.003422
     -8.91477      0.00003     12.68386        -0.000115     -0.000438     -0.003056
     -8.91478      0.00003     17.19604        -0.000162     -0.000266      0.000602
     -8.91474      0.00002     21.65683        -0.000119     -0.000216      0.003964
    -13.37212      0.00002      8.13243        -0.000150     -0.000372      0.002729
    -13.37212     -0.00001     12.68351        -0.000111     -0.000269     -0.002403
    -13.37213      0.00001     17.19465        -0.000092     -0.000141      0.000861
    -13.37212      0.00002     21.65900        -0.000117     -0.000201      0.003541
     -4.45736      4.45740      8.13138        -0.000149     -0.000278      0.003411
     -4.45738      4.45738     12.68389        -0.000090     -0.000252     -0.003208
     -4.45737      4.45737     17.19602        -0.000100     -0.000141      0.000796
     -4.45736      4.45740     21.65682        -0.000124     -0.000218      0.003981
     -8.91474      4.45740      8.13243        -0.000150     -0.000367      0.002721
     -8.91476      4.45739     12.68354        -0.000126     -0.000425     -0.002561
     -8.91477      4.45742     17.19463        -0.000130     -0.000321      0.001023
     -8.91474      4.45740     21.65900        -0.000134     -0.000214      0.003559
    -13.37211      4.45740      8.13138        -0.000144     -0.000271      0.003422
    -13.37214      4.45741     12.68386        -0.000115     -0.000439     -0.003053
    -13.37216      4.45741     17.19604        -0.000162     -0.000266      0.000602
    -13.37212      4.45740     21.65682        -0.000119     -0.000216      0.003962
    -17.82950      4.45740      8.13243        -0.000150     -0.000373      0.002729
    -17.82950      4.45737     12.68351        -0.000112     -0.000270     -0.002414
    -17.82951      4.45739     17.19465        -0.000092     -0.000141      0.000862
    -17.82950      4.45739     21.65900        -0.000118     -0.000200      0.003541
 -----------------------------------------------------------------------------------
    total drift:                                0.018173      0.031929     -0.202067


--------------------------------------------------------------------------------------------------------



  FREE ENERGIE OF THE ION-ELECTRON SYSTEM (eV)
  ---------------------------------------------------
  free  energy   TOTEN  =      -574.55533503 eV

  energy  without entropy=     -574.55533503  energy(sigma->0) =     -574.55533503
 
 d Force = 0.4223070E-03[ 0.129E-03, 0.715E-03]  d Energy = 0.3636956E-03 0.586E-04
 d Force = 0.6650366E+01[ 0.665E+01, 0.665E+01]  d Ewald  = 0.6650365E+01 0.631E-06


--------------------------------------------------------------------------------------------------------


    POTLOK:  cpu time    0.1253: real time    0.1253


--------------------------------------------------------------------------------------------------------


 Conjugate gradient step on ions:
 trial-energy change:   -0.000364  1 .order   -0.000422   -0.000715   -0.000129
  (g-gl).g = 0.255E-03      g.g   = 0.237E-03  gl.gl    = 0.907E-03
 g(Force)  = 0.237E-03   g(Stress)= 0.000E+00 ortho     = 0.208E-05
 gamma     =   0.28147
 trial     =   3.01641
 opt step  =   3.68237  (harmonic =   3.68237) maximal distance =0.00229175
 next E    =  -574.555408   (d E  =  -0.00044)


--------------------------------------------------------------------------------------------------------


  
 reached required accuracy - stopping structural energy minimisation
     LOOP+:  cpu time   34.3999: real time   35.4457
    4ORBIT:  cpu time    0.0000: real time    0.0000

 total amount of memory used by VASP MPI-rank0    52339. kBytes
=======================================================================

   base      :      30000. kBytes
   nonlr-proj:       6759. kBytes
   fftplans  :       3331. kBytes
   grid      :       5273. kBytes
   one-center:         30. kBytes
   wavefun   :       6946. kBytes
 
  
  
 General timing and accounting informations for this job:
 ========================================================
  
                  Total CPU time used (sec):     1424.573
                            User time (sec):     1406.165
                          System time (sec):       18.408
                         Elapsed time (sec):     1463.809
  
                   Maximum memory used (kb):      151792.
                   Average memory used (kb):          N/A
  
                          Minor page faults:      1073984
                          Major page faults:            0
                 Voluntary context switches:         6573
