<?xml version="1.0" encoding="ISO-8859-1"?>
<modeling>
 <generator>
  <i name="program" type="string">vasp </i>
  <i name="version" type="string">6.2.1  </i>
  <i name="subversion" type="string">16May21 (build Dec 23 2021 00:35:04) complex                          parallel </i>
  <i name="platform" type="string">LinuxIFC </i>
  <i name="date" type="string">2023 03 05 </i>
  <i name="time" type="string">12:20:17 </i>
 </generator>
 <incar>
  <i type="string" name="PREC">Normal</i>
  <i type="string" name="ALGO">Fast</i>
  <i type="int" name="ISPIN">     0</i>
  <i type="int" name="NELM">   150</i>
  <i type="int" name="IBRION">     2</i>
  <i name="EDIFF">      0.00000001</i>
  <i name="EDIFFG">     -0.01000000</i>
  <i type="int" name="NSW">   800</i>
  <i type="int" name="ISIF">     2</i>
  <i type="int" name="ISYM">     0</i>
  <i name="ENCUT">    400.00000000</i>
  <i type="string" name="LREAL">AUTO</i>
  <i type="int" name="ISMEAR">     0</i>
  <i name="SIGMA">      0.10000000</i>
  <i name="KSPACING">      0.50000000</i>
  <i type="logical" name="KGAMMA"> T  </i>
  <i type="int" name="NWRITE">     1</i>
  <i type="int" name="LMAXMIX">     6</i>
  <i type="logical" name="LWAVE"> F  </i>
  <i type="logical" name="LCHARG"> F  </i>
  <i type="logical" name="LASPH"> T  </i>
  <i type="string" name="GGA">PE</i>
  <i type="logical" name="LDIPOL"> T  </i>
  <i type="int" name="IDIPOL">     3</i>
  <v name="DIPOL">      0.37870000      0.42270000      0.49880000</v>
 </incar>
 <primitive_cell>
  <structure name="primitive_cell" >
   <crystal>
    <varray name="basis" >
     <v>      -8.91475688       8.91475688       0.00000000 </v>
     <v>     -17.82951376       0.00000000       0.00000000 </v>
     <v>       0.00000000       0.00000000      27.60082437 </v>
    </varray>
    <i name="volume">   4387.03457046 </i>
    <varray name="rec_basis" >
     <v>       0.00000000       0.11217356       0.00000000 </v>
     <v>      -0.05608678      -0.05608678       0.00000000 </v>
     <v>       0.00000000       0.00000000       0.03623080 </v>
    </varray>
   </crystal>
   <varray name="positions" >
    <v>       0.25000009       0.00000000       0.29813200 </v>
    <v>       0.00000005       0.12500002       0.21738481 </v>
    <v>       0.25000009       0.00000000       0.45962639 </v>
    <v>       0.00000005       0.12500002       0.37887921 </v>
    <v>       0.25000009       0.00000000       0.62112079 </v>
    <v>       0.00000005       0.12500002       0.54037361 </v>
    <v>       0.25000009       0.00000000       0.78261519 </v>
    <v>       0.00000005       0.12500002       0.70186800 </v>
    <v>       0.25000009       0.12499998       0.21738481 </v>
    <v>       0.25000009       0.25000000       0.29813200 </v>
    <v>       0.00000005       0.37500002       0.21738481 </v>
    <v>       0.25000009       0.12499998       0.37887921 </v>
    <v>       0.25000009       0.25000000       0.45962639 </v>
    <v>       0.00000005       0.37500002       0.37887921 </v>
    <v>       0.25000009       0.12499998       0.54037361 </v>
    <v>       0.25000009       0.25000000       0.62112079 </v>
    <v>       0.00000005       0.37500002       0.54037361 </v>
    <v>       0.25000009       0.12499998       0.70186800 </v>
    <v>       0.25000009       0.25000000       0.78261519 </v>
    <v>       0.00000005       0.37500002       0.70186800 </v>
    <v>       0.25000009       0.37499998       0.21738481 </v>
    <v>       0.25000009       0.50000000       0.29813200 </v>
    <v>       0.00000005       0.62500002       0.21738481 </v>
    <v>       0.25000009       0.37499998       0.37887921 </v>
    <v>       0.25000009       0.50000000       0.45962639 </v>
    <v>       0.00000005       0.62500002       0.37887921 </v>
    <v>       0.25000009       0.37499998       0.54037361 </v>
    <v>       0.25000009       0.50000000       0.62112079 </v>
    <v>       0.00000005       0.62500002       0.54037361 </v>
    <v>       0.25000009       0.37499998       0.70186800 </v>
    <v>       0.25000009       0.50000000       0.78261519 </v>
    <v>       0.00000005       0.62500002       0.70186800 </v>
    <v>       0.25000009       0.62499998       0.21738481 </v>
    <v>       0.25000009       0.75000000       0.29813200 </v>
    <v>       0.00000005       0.87500002       0.21738481 </v>
    <v>       0.25000009       0.62499998       0.37887921 </v>
    <v>       0.25000009       0.75000000       0.45962639 </v>
    <v>       0.00000005       0.87500002       0.37887921 </v>
    <v>       0.25000009       0.62499998       0.54037361 </v>
    <v>       0.25000009       0.75000000       0.62112079 </v>
    <v>       0.00000005       0.87500002       0.54037361 </v>
    <v>       0.25000009       0.62499998       0.70186800 </v>
    <v>       0.25000009       0.75000000       0.78261519 </v>
    <v>       0.00000005       0.87500002       0.70186800 </v>
    <v>       0.25000009       0.87499998       0.21738481 </v>
    <v>       0.25000009       0.87499998       0.37887921 </v>
    <v>       0.25000009       0.87499998       0.54037361 </v>
    <v>       0.25000009       0.87499998       0.70186800 </v>
    <v>       0.75000009       0.00000000       0.29813200 </v>
    <v>       0.50000005       0.12500002       0.21738481 </v>
    <v>       0.75000009       0.00000000       0.45962639 </v>
    <v>       0.50000005       0.12500002       0.37887921 </v>
    <v>       0.75000009       0.00000000       0.62112079 </v>
    <v>       0.50000005       0.12500002       0.54037361 </v>
    <v>       0.75000009       0.00000000       0.78261519 </v>
    <v>       0.50000005       0.12500002       0.70186800 </v>
    <v>       0.75000009       0.12499998       0.21738481 </v>
    <v>       0.75000009       0.25000000       0.29813200 </v>
    <v>       0.50000005       0.37500002       0.21738481 </v>
    <v>       0.75000009       0.12499998       0.37887921 </v>
    <v>       0.75000009       0.25000000       0.45962639 </v>
    <v>       0.50000005       0.37500002       0.37887921 </v>
    <v>       0.75000009       0.12499998       0.54037361 </v>
    <v>       0.75000009       0.25000000       0.62112079 </v>
    <v>       0.50000005       0.37500002       0.54037361 </v>
    <v>       0.75000009       0.12499998       0.70186800 </v>
    <v>       0.75000009       0.25000000       0.78261519 </v>
    <v>       0.50000005       0.37500002       0.70186800 </v>
    <v>       0.75000009       0.37499998       0.21738481 </v>
    <v>       0.75000009       0.50000000       0.29813200 </v>
    <v>       0.50000005       0.62500002       0.21738481 </v>
    <v>       0.75000009       0.37499998       0.37887921 </v>
    <v>       0.75000009       0.50000000       0.45962639 </v>
    <v>       0.50000005       0.62500002       0.37887921 </v>
    <v>       0.75000009       0.37499998       0.54037361 </v>
    <v>       0.75000009       0.50000000       0.62112079 </v>
    <v>       0.50000005       0.62500002       0.54037361 </v>
    <v>       0.75000009       0.37499998       0.70186800 </v>
    <v>       0.75000009       0.50000000       0.78261519 </v>
    <v>       0.50000005       0.62500002       0.70186800 </v>
    <v>       0.75000009       0.62499998       0.21738481 </v>
    <v>       0.75000009       0.75000000       0.29813200 </v>
    <v>       0.50000005       0.87500002       0.21738481 </v>
    <v>       0.75000009       0.62499998       0.37887921 </v>
    <v>       0.75000009       0.75000000       0.45962639 </v>
    <v>       0.50000005       0.87500002       0.37887921 </v>
    <v>       0.75000009       0.62499998       0.54037361 </v>
    <v>       0.75000009       0.75000000       0.62112079 </v>
    <v>       0.50000005       0.87500002       0.54037361 </v>
    <v>       0.75000009       0.62499998       0.70186800 </v>
    <v>       0.75000009       0.75000000       0.78261519 </v>
    <v>       0.50000005       0.87500002       0.70186800 </v>
    <v>       0.75000009       0.87499998       0.21738481 </v>
    <v>       0.75000009       0.87499998       0.37887921 </v>
    <v>       0.75000009       0.87499998       0.54037361 </v>
    <v>       0.75000009       0.87499998       0.70186800 </v>
    <v>       0.25000009       0.00000000       0.21738481 </v>
    <v>       0.25000009       0.00000000       0.37887921 </v>
    <v>       0.25000009       0.00000000       0.54037361 </v>
    <v>       0.25000009       0.00000000       0.70186800 </v>
    <v>       0.25000009       0.25000000       0.21738481 </v>
    <v>       0.25000009       0.25000000       0.37887921 </v>
    <v>       0.25000009       0.25000000       0.54037361 </v>
    <v>       0.25000009       0.25000000       0.70186800 </v>
    <v>       0.25000009       0.50000000       0.21738481 </v>
    <v>       0.25000009       0.50000000       0.37887921 </v>
    <v>       0.25000009       0.50000000       0.54037361 </v>
    <v>       0.25000009       0.50000000       0.70186800 </v>
    <v>       0.25000009       0.75000000       0.21738481 </v>
    <v>       0.25000009       0.75000000       0.37887921 </v>
    <v>       0.25000009       0.75000000       0.54037361 </v>
    <v>       0.25000009       0.75000000       0.70186800 </v>
    <v>       0.75000009       0.00000000       0.21738481 </v>
    <v>       0.75000009       0.00000000       0.37887921 </v>
    <v>       0.75000009       0.00000000       0.54037361 </v>
    <v>       0.75000009       0.00000000       0.70186800 </v>
    <v>       0.75000009       0.25000000       0.21738481 </v>
    <v>       0.75000009       0.25000000       0.37887921 </v>
    <v>       0.75000009       0.25000000       0.54037361 </v>
    <v>       0.75000009       0.25000000       0.70186800 </v>
    <v>       0.75000009       0.50000000       0.21738481 </v>
    <v>       0.75000009       0.50000000       0.37887921 </v>
    <v>       0.75000009       0.50000000       0.54037361 </v>
    <v>       0.75000009       0.50000000       0.70186800 </v>
    <v>       0.75000009       0.75000000       0.21738481 </v>
    <v>       0.75000009       0.75000000       0.37887921 </v>
    <v>       0.75000009       0.75000000       0.54037361 </v>
    <v>       0.75000009       0.75000000       0.70186800 </v>
    <v>       0.00000005       0.00000000       0.29813200 </v>
    <v>       0.00000005       0.00000000       0.45962639 </v>
    <v>       0.00000005       0.00000000       0.62112079 </v>
    <v>       0.00000005       0.00000000       0.78261519 </v>
    <v>       0.00000005       0.25000000       0.29813200 </v>
    <v>       0.00000005       0.25000000       0.45962639 </v>
    <v>       0.00000005       0.25000000       0.62112079 </v>
    <v>       0.00000005       0.25000000       0.78261519 </v>
    <v>       0.00000005       0.50000000       0.29813200 </v>
    <v>       0.00000005       0.50000000       0.45962639 </v>
    <v>       0.00000005       0.50000000       0.62112079 </v>
    <v>       0.00000005       0.50000000       0.78261519 </v>
    <v>       0.00000005       0.75000000       0.29813200 </v>
    <v>       0.00000005       0.75000000       0.45962639 </v>
    <v>       0.00000005       0.75000000       0.62112079 </v>
    <v>       0.00000005       0.75000000       0.78261519 </v>
    <v>       0.50000005       0.00000000       0.29813200 </v>
    <v>       0.50000005       0.00000000       0.45962639 </v>
    <v>       0.50000005       0.00000000       0.62112079 </v>
    <v>       0.50000005       0.00000000       0.78261519 </v>
    <v>       0.50000005       0.25000000       0.29813200 </v>
    <v>       0.50000005       0.25000000       0.45962639 </v>
    <v>       0.50000005       0.25000000       0.62112079 </v>
    <v>       0.50000005       0.25000000       0.78261519 </v>
    <v>       0.50000005       0.50000000       0.29813200 </v>
    <v>       0.50000005       0.50000000       0.45962639 </v>
    <v>       0.50000005       0.50000000       0.62112079 </v>
    <v>       0.50000005       0.50000000       0.78261519 </v>
    <v>       0.50000005       0.75000000       0.29813200 </v>
    <v>       0.50000005       0.75000000       0.45962639 </v>
    <v>       0.50000005       0.75000000       0.62112079 </v>
    <v>       0.50000005       0.75000000       0.78261519 </v>
   </varray>
  </structure>
  <varray name="primitive_index" >
   <v type="int" >        1 </v>
   <v type="int" >        2 </v>
   <v type="int" >        3 </v>
   <v type="int" >        4 </v>
   <v type="int" >        5 </v>
   <v type="int" >        6 </v>
   <v type="int" >        7 </v>
   <v type="int" >        8 </v>
   <v type="int" >        9 </v>
   <v type="int" >       10 </v>
   <v type="int" >       11 </v>
   <v type="int" >       12 </v>
   <v type="int" >       13 </v>
   <v type="int" >       14 </v>
   <v type="int" >       15 </v>
   <v type="int" >       16 </v>
   <v type="int" >       17 </v>
   <v type="int" >       18 </v>
   <v type="int" >       19 </v>
   <v type="int" >       20 </v>
   <v type="int" >       21 </v>
   <v type="int" >       22 </v>
   <v type="int" >       23 </v>
   <v type="int" >       24 </v>
   <v type="int" >       25 </v>
   <v type="int" >       26 </v>
   <v type="int" >       27 </v>
   <v type="int" >       28 </v>
   <v type="int" >       29 </v>
   <v type="int" >       30 </v>
   <v type="int" >       31 </v>
   <v type="int" >       32 </v>
   <v type="int" >       33 </v>
   <v type="int" >       34 </v>
   <v type="int" >       35 </v>
   <v type="int" >       36 </v>
   <v type="int" >       37 </v>
   <v type="int" >       38 </v>
   <v type="int" >       39 </v>
   <v type="int" >       40 </v>
   <v type="int" >       41 </v>
   <v type="int" >       42 </v>
   <v type="int" >       43 </v>
   <v type="int" >       44 </v>
   <v type="int" >       45 </v>
   <v type="int" >       46 </v>
   <v type="int" >       47 </v>
   <v type="int" >       48 </v>
   <v type="int" >       49 </v>
   <v type="int" >       50 </v>
   <v type="int" >       51 </v>
   <v type="int" >       52 </v>
   <v type="int" >       53 </v>
   <v type="int" >       54 </v>
   <v type="int" >       55 </v>
   <v type="int" >       56 </v>
   <v type="int" >       57 </v>
   <v type="int" >       58 </v>
   <v type="int" >       59 </v>
   <v type="int" >       60 </v>
   <v type="int" >       61 </v>
   <v type="int" >       62 </v>
   <v type="int" >       63 </v>
   <v type="int" >       64 </v>
   <v type="int" >       65 </v>
   <v type="int" >       66 </v>
   <v type="int" >       67 </v>
   <v type="int" >       68 </v>
   <v type="int" >       69 </v>
   <v type="int" >       70 </v>
   <v type="int" >       71 </v>
   <v type="int" >       72 </v>
   <v type="int" >       73 </v>
   <v type="int" >       74 </v>
   <v type="int" >       75 </v>
   <v type="int" >       76 </v>
   <v type="int" >       77 </v>
   <v type="int" >       78 </v>
   <v type="int" >       79 </v>
   <v type="int" >       80 </v>
   <v type="int" >       81 </v>
   <v type="int" >       82 </v>
   <v type="int" >       83 </v>
   <v type="int" >       84 </v>
   <v type="int" >       85 </v>
   <v type="int" >       86 </v>
   <v type="int" >       87 </v>
   <v type="int" >       88 </v>
   <v type="int" >       89 </v>
   <v type="int" >       90 </v>
   <v type="int" >       91 </v>
   <v type="int" >       92 </v>
   <v type="int" >       93 </v>
   <v type="int" >       94 </v>
   <v type="int" >       95 </v>
   <v type="int" >       96 </v>
   <v type="int" >       97 </v>
   <v type="int" >       98 </v>
   <v type="int" >       99 </v>
   <v type="int" >      100 </v>
   <v type="int" >      101 </v>
   <v type="int" >      102 </v>
   <v type="int" >      103 </v>
   <v type="int" >      104 </v>
   <v type="int" >      105 </v>
   <v type="int" >      106 </v>
   <v type="int" >      107 </v>
   <v type="int" >      108 </v>
   <v type="int" >      109 </v>
   <v type="int" >      110 </v>
   <v type="int" >      111 </v>
   <v type="int" >      112 </v>
   <v type="int" >      113 </v>
   <v type="int" >      114 </v>
   <v type="int" >      115 </v>
   <v type="int" >      116 </v>
   <v type="int" >      117 </v>
   <v type="int" >      118 </v>
   <v type="int" >      119 </v>
   <v type="int" >      120 </v>
   <v type="int" >      121 </v>
   <v type="int" >      122 </v>
   <v type="int" >      123 </v>
   <v type="int" >      124 </v>
   <v type="int" >      125 </v>
   <v type="int" >      126 </v>
   <v type="int" >      127 </v>
   <v type="int" >      128 </v>
   <v type="int" >      129 </v>
   <v type="int" >      130 </v>
   <v type="int" >      131 </v>
   <v type="int" >      132 </v>
   <v type="int" >      133 </v>
   <v type="int" >      134 </v>
   <v type="int" >      135 </v>
   <v type="int" >      136 </v>
   <v type="int" >      137 </v>
   <v type="int" >      138 </v>
   <v type="int" >      139 </v>
   <v type="int" >      140 </v>
   <v type="int" >      141 </v>
   <v type="int" >      142 </v>
   <v type="int" >      143 </v>
   <v type="int" >      144 </v>
   <v type="int" >      145 </v>
   <v type="int" >      146 </v>
   <v type="int" >      147 </v>
   <v type="int" >      148 </v>
   <v type="int" >      149 </v>
   <v type="int" >      150 </v>
   <v type="int" >      151 </v>
   <v type="int" >      152 </v>
   <v type="int" >      153 </v>
   <v type="int" >      154 </v>
   <v type="int" >      155 </v>
   <v type="int" >      156 </v>
   <v type="int" >      157 </v>
   <v type="int" >      158 </v>
   <v type="int" >      159 </v>
   <v type="int" >      160 </v>
  </varray>
 </primitive_cell>
 <kpoints>
  <generation param="Gamma">
   <v type="int" name="divisions">       2        1        1 </v>
   <v name="usershift">      0.00000000       0.00000000       0.00000000 </v>
   <v name="genvec1">      0.50000000       0.00000000       0.00000000 </v>
   <v name="genvec2">      0.00000000       1.00000000       0.00000000 </v>
   <v name="genvec3">      0.00000000       0.00000000       1.00000000 </v>
   <v name="shift">      0.00000000       0.00000000       0.00000000 </v>
  </generation>
  <varray name="kpointlist" >
   <v>       0.00000000       0.00000000       0.00000000 </v>
   <v>       0.50000000       0.00000000       0.00000000 </v>
  </varray>
  <varray name="weights" >
   <v>       0.50000000 </v>
   <v>       0.50000000 </v>
  </varray>
 </kpoints>
 <parameters>
  <separator name="general" >
   <i type="string" name="SYSTEM">unknown system</i>
   <i type="logical" name="LCOMPAT"> F  </i>
  </separator>
  <separator name="electronic" >
   <i type="string" name="PREC">normal</i>
   <i name="ENMAX">    400.00000000</i>
   <i name="ENAUG">    605.39200000</i>
   <i name="EDIFF">      0.00000001</i>
   <i type="int" name="IALGO">    68</i>
   <i type="int" name="IWAVPR">    11</i>
   <i type="int" name="NBANDS">   344</i>
   <i type="int" name="NBANDSLOW">    -1</i>
   <i type="int" name="NBANDSHIGH">    -1</i>
   <i name="NELECT">    512.00000000</i>
   <i type="int" name="TURBO">     0</i>
   <i type="int" name="IRESTART">     0</i>
   <i type="int" name="NREBOOT">     0</i>
   <i type="int" name="NMIN">     0</i>
   <i name="EREF">      0.00000000</i>
   <separator name="electronic smearing" >
    <i type="int" name="ISMEAR">     0</i>
    <i name="SIGMA">      0.10000000</i>
    <i name="KSPACING">      0.50000000</i>
    <i type="logical" name="KGAMMA"> T  </i>
    <i type="logical" name="KBLOWUP"> T  </i>
   </separator>
   <separator name="electronic projectors" >
    <i type="logical" name="LREAL"> T  </i>
    <v name="ROPT">     -0.00050000     -0.00050000     -0.00050000</v>
    <i type="int" name="LMAXPAW">  -100</i>
    <i type="int" name="LMAXMIX">     6</i>
    <i type="logical" name="NLSPLINE"> F  </i>
   </separator>
   <separator name="electronic startup" >
    <i type="int" name="ISTART">     0</i>
    <i type="int" name="ICHARG">     2</i>
    <i type="int" name="INIWAV">     1</i>
   </separator>
   <separator name="electronic spin" >
    <i type="int" name="ISPIN">     1</i>
    <i type="logical" name="LNONCOLLINEAR"> F  </i>
    <v name="MAGMOM">      1.00000000      1.00000000      1.00000000      1.00000000      1.00000000      1.00000000      1.00000000      1.00000000      1.00000000      1.00000000      1.00000000      1.00000000      1.00000000      1.00000000      1.00000000      1.00000000      1.00000000      1.00000000      1.00000000      1.00000000
      1.00000000      1.00000000      1.00000000      1.00000000      1.00000000      1.00000000      1.00000000      1.00000000      1.00000000      1.00000000      1.00000000      1.00000000      1.00000000      1.00000000      1.00000000      1.00000000      1.00000000      1.00000000      1.00000000      1.00000000
      1.00000000      1.00000000      1.00000000      1.00000000      1.00000000      1.00000000      1.00000000      1.00000000      1.00000000      1.00000000      1.00000000      1.00000000      1.00000000      1.00000000      1.00000000      1.00000000      1.00000000      1.00000000      1.00000000      1.00000000
      1.00000000      1.00000000      1.00000000      1.00000000      1.00000000      1.00000000      1.00000000      1.00000000      1.00000000      1.00000000      1.00000000      1.00000000      1.00000000      1.00000000      1.00000000      1.00000000      1.00000000      1.00000000      1.00000000      1.00000000
      1.00000000      1.00000000      1.00000000      1.00000000      1.00000000      1.00000000      1.00000000      1.00000000      1.00000000      1.00000000      1.00000000      1.00000000      1.00000000      1.00000000      1.00000000      1.00000000      1.00000000      1.00000000      1.00000000      1.00000000
      1.00000000      1.00000000      1.00000000      1.00000000      1.00000000      1.00000000      1.00000000      1.00000000      1.00000000      1.00000000      1.00000000      1.00000000      1.00000000      1.00000000      1.00000000      1.00000000      1.00000000      1.00000000      1.00000000      1.00000000
      1.00000000      1.00000000      1.00000000      1.00000000      1.00000000      1.00000000      1.00000000      1.00000000      1.00000000      1.00000000      1.00000000      1.00000000      1.00000000      1.00000000      1.00000000      1.00000000      1.00000000      1.00000000      1.00000000      1.00000000
      1.00000000      1.00000000      1.00000000      1.00000000      1.00000000      1.00000000      1.00000000      1.00000000      1.00000000      1.00000000      1.00000000      1.00000000      1.00000000      1.00000000      1.00000000      1.00000000      1.00000000      1.00000000      1.00000000      1.00000000
</v>
    <i name="NUPDOWN">     -1.00000000</i>
    <i type="logical" name="LSORBIT"> F  </i>
    <v name="SAXIS">      0.00000000      0.00000000      1.00000000</v>
    <i type="logical" name="LSPIRAL"> F  </i>
    <v name="QSPIRAL">      0.00000000      0.00000000      0.00000000</v>
    <i type="logical" name="LZEROZ"> F  </i>
   </separator>
   <separator name="electronic exchange-correlation" >
    <i type="logical" name="LASPH"> T  </i>
    <i type="logical" name="LMETAGGA"> F  </i>
   </separator>
   <separator name="electronic convergence" >
    <i type="int" name="NELM">   150</i>
    <i type="int" name="NELMDL">     0</i>
    <i type="int" name="NELMIN">     2</i>
    <i name="ENINI">    400.00000000</i>
    <separator name="electronic convergence detail" >
     <i type="logical" name="LDIAG"> T  </i>
     <i type="logical" name="LSUBROT"> F  </i>
     <i name="WEIMIN">      0.00100000</i>
     <i name="EBREAK">      0.00000000</i>
     <i name="DEPER">      0.30000000</i>
     <i type="int" name="NRMM">     4</i>
     <i name="TIME">      0.40000000</i>
    </separator>
   </separator>
   <separator name="electronic mixer" >
    <i name="AMIX">      0.40000000</i>
    <i name="BMIX">      1.00000000</i>
    <i name="AMIN">      0.10000000</i>
    <i name="AMIX_MAG">      1.60000000</i>
    <i name="BMIX_MAG">      1.00000000</i>
    <separator name="electronic mixer details" >
     <i type="int" name="IMIX">     4</i>
     <i type="logical" name="MIXFIRST"> F  </i>
     <i type="int" name="MAXMIX">   -45</i>
     <i name="WC">    100.00000000</i>
     <i type="int" name="INIMIX">     1</i>
     <i type="int" name="MIXPRE">     1</i>
     <i type="int" name="MREMOVE">     5</i>
    </separator>
   </separator>
   <separator name="electronic dipolcorrection" >
    <i type="logical" name="LDIPOL"> T  </i>
    <i type="logical" name="LMONO"> F  </i>
    <i type="int" name="IDIPOL">     3</i>
    <i name="EPSILON">      1.00000000</i>
    <v name="DIPOL">      0.37870000      0.42270000      0.49880000</v>
    <i name="EFIELD">      0.00000000</i>
   </separator>
  </separator>
  <separator name="grids" >
   <i type="int" name="NGX">    64</i>
   <i type="int" name="NGY">    90</i>
   <i type="int" name="NGZ">   140</i>
   <i type="int" name="NGXF">   128</i>
   <i type="int" name="NGYF">   180</i>
   <i type="int" name="NGZF">   280</i>
   <i type="logical" name="ADDGRID"> F  </i>
  </separator>
  <separator name="ionic" >
   <i type="int" name="NSW">   800</i>
   <i type="int" name="IBRION">     2</i>
   <i type="int" name="MDALGO">     0</i>
   <i type="int" name="ISIF">     2</i>
   <i name="PSTRESS">      0.00000000</i>
   <i name="EDIFFG">     -0.01000000</i>
   <i type="int" name="NFREE">     1</i>
   <i name="POTIM">      0.50000000</i>
   <i name="SMASS">     -3.00000000</i>
   <i name="SCALEE">      1.00000000</i>
  </separator>
  <separator name="ionic md" >
   <i name="TEBEG">      0.00010000</i>
   <i name="TEEND">      0.00010000</i>
   <i type="int" name="NBLOCK">     1</i>
   <i type="int" name="KBLOCK">   800</i>
   <i type="int" name="NPACO">   256</i>
   <i name="APACO">     16.00000000</i>
  </separator>
  <separator name="symmetry" >
   <i type="int" name="ISYM">     0</i>
   <i name="SYMPREC">      0.00001000</i>
  </separator>
  <separator name="dos" >
   <i type="int" name="LORBIT">     0</i>
   <v name="RWIGS">     -1.00000000     -1.00000000     -1.00000000</v>
   <i type="int" name="NEDOS">   301</i>
   <i name="EMIN">     10.00000000</i>
   <i name="EMAX">    -10.00000000</i>
   <i name="EFERMI">      0.00000000</i>
  </separator>
  <separator name="writing" >
   <i type="int" name="NWRITE">     1</i>
   <i type="logical" name="LWAVE"> F  </i>
   <i type="logical" name="LDOWNSAMPLE"> F  </i>
   <i type="logical" name="LCHARG"> F  </i>
   <i type="logical" name="LPARD"> F  </i>
   <i type="logical" name="LVTOT"> F  </i>
   <i type="logical" name="LVHAR"> F  </i>
   <i type="logical" name="LELF"> F  </i>
   <i type="logical" name="LOPTICS"> F  </i>
   <v name="STM">      0.00000000      0.00000000      0.00000000      0.00000000      0.00000000      0.00000000      0.00000000</v>
  </separator>
  <separator name="performance" >
   <i type="int" name="NPAR">     8</i>
   <i type="int" name="NSIM">     4</i>
   <i type="int" name="NBLK">    -1</i>
   <i type="logical" name="LPLANE"> T  </i>
   <i type="logical" name="LSCALAPACK"> T  </i>
   <i type="logical" name="LSCAAWARE"> F  </i>
   <i type="logical" name="LSCALU"> F  </i>
   <i type="logical" name="LASYNC"> F  </i>
   <i type="logical" name="LORBITALREAL"> F  </i>
  </separator>
  <separator name="miscellaneous" >
   <i type="int" name="IDIOT">     3</i>
   <i type="int" name="PHON_NSTRUCT">    -1</i>
   <i type="logical" name="LMUSIC"> F  </i>
   <v name="POMASS">     22.99000000     16.00000000     35.45300000</v>
   <v name="DARWINR">      0.00000000      0.00000000      0.00000000</v>
   <v name="DARWINV">      1.00000000      1.00000000      1.00000000</v>
   <i type="logical" name="LCORR"> T  </i>
  </separator>
  <i type="logical" name="GGA_COMPAT"> T  </i>
  <i type="logical" name="LBERRY"> F  </i>
  <i type="int" name="ICORELEVEL">     0</i>
  <i type="logical" name="LDAU"> F  </i>
  <i type="int" name="I_CONSTRAINED_M">     0</i>
  <separator name="electronic exchange-correlation" >
   <i type="string" name="GGA">PE</i>
   <i type="int" name="VOSKOWN">     0</i>
   <i type="logical" name="LHFCALC"> F  </i>
   <i type="string" name="PRECFOCK"></i>
   <i type="logical" name="LSYMGRAD"> F  </i>
   <i type="logical" name="LHFONE"> F  </i>
   <i type="logical" name="LRHFCALC"> F  </i>
   <i type="logical" name="LTHOMAS"> F  </i>
   <i type="logical" name="LMODELHF"> F  </i>
   <i type="logical" name="LFOCKACE"> F  </i>
   <i name="ENCUT4O">     -1.00000000</i>
   <i type="int" name="EXXOEP">     0</i>
   <i type="int" name="FOURORBIT">     0</i>
   <i name="AEXX">      0.00000000</i>
   <i name="HFALPHA">      0.00000000</i>
   <i name="MCALPHA">      0.00000000</i>
   <i name="ALDAX">      1.00000000</i>
   <i name="AGGAX">      1.00000000</i>
   <i name="ALDAC">      1.00000000</i>
   <i name="AGGAC">      1.00000000</i>
   <i type="int" name="NKREDX">     1</i>
   <i type="int" name="NKREDY">     1</i>
   <i type="int" name="NKREDZ">     1</i>
   <i type="logical" name="SHIFTRED"> F  </i>
   <i type="logical" name="ODDONLY"> F  </i>
   <i type="logical" name="EVENONLY"> F  </i>
   <i type="int" name="LMAXFOCK">     0</i>
   <i type="int" name="NMAXFOCKAE">     0</i>
   <i type="logical" name="LFOCKAEDFT"> F  </i>
   <i name="HFSCREEN">      0.00000000</i>
   <i name="HFSCREENC">      0.00000000</i>
   <i type="int" name="NBANDSGWLOW">     0</i>
  </separator>
  <separator name="vdW DFT" >
   <i type="logical" name="LUSE_VDW"> F  </i>
   <i name="Zab_VDW">     -0.84910000</i>
   <i name="PARAM1">      0.12340000</i>
   <i name="PARAM2">      1.00000000</i>
   <i name="PARAM3">      0.00000000</i>
  </separator>
  <separator name="model GW" >
   <i type="int" name="MODEL_GW">     0</i>
   <i name="MODEL_EPS0">     16.45137964</i>
   <i name="MODEL_ALPHA">      1.00000000</i>
  </separator>
  <separator name="linear response parameters" >
   <i type="logical" name="LEPSILON"> F  </i>
   <i type="logical" name="LRPA"> F  </i>
   <i type="logical" name="LNABLA"> F  </i>
   <i type="logical" name="LVEL"> F  </i>
   <i type="int" name="KINTER">     0</i>
   <i name="CSHIFT">      0.10000000</i>
   <i name="OMEGAMAX">     -1.00000000</i>
   <i name="DEG_THRESHOLD">      0.00200000</i>
   <i name="RTIME">     -0.10000000</i>
   <i name="WPLASMAI">      0.00000000</i>
   <v name="DFIELD">      0.00000000      0.00000000      0.00000000</v>
   <v name="WPLASMA">      0.00000000      0.00000000      0.00000000      0.00000000      0.00000000      0.00000000      0.00000000      0.00000000      0.00000000</v>
  </separator>
  <separator name="orbital magnetization" >
   <i type="logical" name="NUCIND"> F  </i>
   <v name="MAGPOS">      0.00000000      0.00000000      0.00000000</v>
   <i type="logical" name="LNICSALL"> T  </i>
   <i type="logical" name="ORBITALMAG"> F  </i>
   <i type="logical" name="LMAGBLOCH"> F  </i>
   <i type="logical" name="LCHIMAG"> F  </i>
   <i type="logical" name="LGAUGE"> T  </i>
   <i type="int" name="MAGATOM">     0</i>
   <v name="MAGDIPOL">      0.00000000      0.00000000      0.00000000</v>
   <v name="AVECCONST">      0.00000000      0.00000000      0.00000000</v>
  </separator>
  <separator name="response functions" >
   <i type="logical" name="LFINITE_TEMPERATURE"> F  </i>
   <i type="logical" name="LADDER"> F  </i>
   <i type="logical" name="LRPAFORCE"> F  </i>
   <i type="logical" name="LFXC"> F  </i>
   <i type="logical" name="LHARTREE"> T  </i>
   <i type="int" name="IBSE">     0</i>
   <v type="int" name="KPOINT">    -1     0     0     0</v>
   <i type="logical" name="LTCTC"> F  </i>
   <i type="logical" name="LTCTE"> F  </i>
   <i type="logical" name="LTETE"> F  </i>
   <i type="logical" name="LTRIPLET"> F  </i>
   <i type="logical" name="LFXCEPS"> F  </i>
   <i type="logical" name="LFXHEG"> F  </i>
   <i type="int" name="NATURALO">     2</i>
   <i type="logical" name="LHOLEGF"> F  </i>
   <i type="logical" name="L2ORDER"> F  </i>
   <i type="logical" name="LDMP1"> F  </i>
   <i type="logical" name="LMP2LT"> F  </i>
   <i type="logical" name="LSMP2LT"> F  </i>
   <i type="logical" name="LGWLF"> F  </i>
   <i name="ENCUTGW">     -2.00000000</i>
   <i name="ENCUTGWSOFT">     -2.00000000</i>
   <i name="ENCUTLF">     -1.00000000</i>
   <i type="logical" name="LESF_SPLINES"> F  </i>
   <i type="int" name="LMAXMP2">    -1</i>
   <i name="SCISSOR">      0.00000000</i>
   <i type="int" name="NOMEGA">     0</i>
   <i type="int" name="NOMEGAR">     0</i>
   <i type="int" name="NBANDSGW">    -1</i>
   <i type="int" name="NBANDSO">    -1</i>
   <i type="int" name="NBANDSV">    -1</i>
   <i type="int" name="NELM">   150</i>
   <i type="int" name="NELMHF">     1</i>
   <i type="int" name="DIM">     3</i>
   <i type="int" name="IESPILON">     4</i>
   <i type="int" name="ANTIRES">     0</i>
   <i name="OMEGAMAX">    -30.00000000</i>
   <i name="OMEGAMIN">    -30.00000000</i>
   <i name="OMEGATL">   -200.00000000</i>
   <i type="int" name="OMEGAGRID">     0</i>
   <i name="CSHIFT">     -0.10000000</i>
   <i type="logical" name="LSELFENERGY"> F  </i>
   <i type="logical" name="LSPECTRAL"> F  </i>
   <i type="logical" name="LSPECTRALGW"> F  </i>
   <i type="logical" name="LSINGLES"> F  </i>
   <i type="logical" name="LFERMIGW"> F  </i>
   <i type="logical" name="ODDONLYGW"> F  </i>
   <i type="logical" name="EVENONLYGW"> F  </i>
   <i type="int" name="NKREDLFX">     1</i>
   <i type="int" name="NKREDLFY">     1</i>
   <i type="int" name="NKREDLFZ">     1</i>
   <i type="int" name="MAXMEM">  2800</i>
   <i type="int" name="TELESCOPE">     0</i>
   <i type="int" name="NTAUPAR">    -1</i>
   <i type="int" name="NOMEGAPAR">    -1</i>
   <i name="DAMP_NEWTON">      0.80000001</i>
   <i name="LAMBDA">      1.00000000</i>
  </separator>
  <separator name="External order field" >
   <i name="OFIELD_KAPPA">      0.00000000</i>
   <v name="OFIELD_K">      0.00000000      0.00000000      0.00000000</v>
   <i name="OFIELD_Q6_NEAR">      0.00000000</i>
   <i name="OFIELD_Q6_FAR">      0.00000000</i>
   <i name="OFIELD_A">      0.00000000</i>
  </separator>
 </parameters>
 <atominfo>
  <atoms>     160 </atoms>
  <types>       3 </types>
  <array name="atoms" >
   <dimension dim="1">ion</dimension>
   <field type="string">element</field>
   <field type="int">atomtype</field>
   <set>
    <rc><c>Na</c><c>   1</c></rc>
    <rc><c>Na</c><c>   1</c></rc>
    <rc><c>Na</c><c>   1</c></rc>
    <rc><c>Na</c><c>   1</c></rc>
    <rc><c>Na</c><c>   1</c></rc>
    <rc><c>Na</c><c>   1</c></rc>
    <rc><c>Na</c><c>   1</c></rc>
    <rc><c>Na</c><c>   1</c></rc>
    <rc><c>Na</c><c>   1</c></rc>
    <rc><c>Na</c><c>   1</c></rc>
    <rc><c>Na</c><c>   1</c></rc>
    <rc><c>Na</c><c>   1</c></rc>
    <rc><c>Na</c><c>   1</c></rc>
    <rc><c>Na</c><c>   1</c></rc>
    <rc><c>Na</c><c>   1</c></rc>
    <rc><c>Na</c><c>   1</c></rc>
    <rc><c>Na</c><c>   1</c></rc>
    <rc><c>Na</c><c>   1</c></rc>
    <rc><c>Na</c><c>   1</c></rc>
    <rc><c>Na</c><c>   1</c></rc>
    <rc><c>Na</c><c>   1</c></rc>
    <rc><c>Na</c><c>   1</c></rc>
    <rc><c>Na</c><c>   1</c></rc>
    <rc><c>Na</c><c>   1</c></rc>
    <rc><c>Na</c><c>   1</c></rc>
    <rc><c>Na</c><c>   1</c></rc>
    <rc><c>Na</c><c>   1</c></rc>
    <rc><c>Na</c><c>   1</c></rc>
    <rc><c>Na</c><c>   1</c></rc>
    <rc><c>Na</c><c>   1</c></rc>
    <rc><c>Na</c><c>   1</c></rc>
    <rc><c>Na</c><c>   1</c></rc>
    <rc><c>Na</c><c>   1</c></rc>
    <rc><c>Na</c><c>   1</c></rc>
    <rc><c>Na</c><c>   1</c></rc>
    <rc><c>Na</c><c>   1</c></rc>
    <rc><c>Na</c><c>   1</c></rc>
    <rc><c>Na</c><c>   1</c></rc>
    <rc><c>Na</c><c>   1</c></rc>
    <rc><c>Na</c><c>   1</c></rc>
    <rc><c>Na</c><c>   1</c></rc>
    <rc><c>Na</c><c>   1</c></rc>
    <rc><c>Na</c><c>   1</c></rc>
    <rc><c>Na</c><c>   1</c></rc>
    <rc><c>Na</c><c>   1</c></rc>
    <rc><c>Na</c><c>   1</c></rc>
    <rc><c>Na</c><c>   1</c></rc>
    <rc><c>Na</c><c>   1</c></rc>
    <rc><c>Na</c><c>   1</c></rc>
    <rc><c>Na</c><c>   1</c></rc>
    <rc><c>Na</c><c>   1</c></rc>
    <rc><c>Na</c><c>   1</c></rc>
    <rc><c>Na</c><c>   1</c></rc>
    <rc><c>Na</c><c>   1</c></rc>
    <rc><c>Na</c><c>   1</c></rc>
    <rc><c>Na</c><c>   1</c></rc>
    <rc><c>Na</c><c>   1</c></rc>
    <rc><c>Na</c><c>   1</c></rc>
    <rc><c>Na</c><c>   1</c></rc>
    <rc><c>Na</c><c>   1</c></rc>
    <rc><c>Na</c><c>   1</c></rc>
    <rc><c>Na</c><c>   1</c></rc>
    <rc><c>Na</c><c>   1</c></rc>
    <rc><c>Na</c><c>   1</c></rc>
    <rc><c>Na</c><c>   1</c></rc>
    <rc><c>Na</c><c>   1</c></rc>
    <rc><c>Na</c><c>   1</c></rc>
    <rc><c>Na</c><c>   1</c></rc>
    <rc><c>Na</c><c>   1</c></rc>
    <rc><c>Na</c><c>   1</c></rc>
    <rc><c>Na</c><c>   1</c></rc>
    <rc><c>Na</c><c>   1</c></rc>
    <rc><c>Na</c><c>   1</c></rc>
    <rc><c>Na</c><c>   1</c></rc>
    <rc><c>Na</c><c>   1</c></rc>
    <rc><c>Na</c><c>   1</c></rc>
    <rc><c>Na</c><c>   1</c></rc>
    <rc><c>Na</c><c>   1</c></rc>
    <rc><c>Na</c><c>   1</c></rc>
    <rc><c>Na</c><c>   1</c></rc>
    <rc><c>Na</c><c>   1</c></rc>
    <rc><c>Na</c><c>   1</c></rc>
    <rc><c>Na</c><c>   1</c></rc>
    <rc><c>Na</c><c>   1</c></rc>
    <rc><c>Na</c><c>   1</c></rc>
    <rc><c>Na</c><c>   1</c></rc>
    <rc><c>Na</c><c>   1</c></rc>
    <rc><c>Na</c><c>   1</c></rc>
    <rc><c>Na</c><c>   1</c></rc>
    <rc><c>Na</c><c>   1</c></rc>
    <rc><c>Na</c><c>   1</c></rc>
    <rc><c>Na</c><c>   1</c></rc>
    <rc><c>Na</c><c>   1</c></rc>
    <rc><c>Na</c><c>   1</c></rc>
    <rc><c>Na</c><c>   1</c></rc>
    <rc><c>Na</c><c>   1</c></rc>
    <rc><c>O </c><c>   2</c></rc>
    <rc><c>O </c><c>   2</c></rc>
    <rc><c>O </c><c>   2</c></rc>
    <rc><c>O </c><c>   2</c></rc>
    <rc><c>O </c><c>   2</c></rc>
    <rc><c>O </c><c>   2</c></rc>
    <rc><c>O </c><c>   2</c></rc>
    <rc><c>O </c><c>   2</c></rc>
    <rc><c>O </c><c>   2</c></rc>
    <rc><c>O </c><c>   2</c></rc>
    <rc><c>O </c><c>   2</c></rc>
    <rc><c>O </c><c>   2</c></rc>
    <rc><c>O </c><c>   2</c></rc>
    <rc><c>O </c><c>   2</c></rc>
    <rc><c>O </c><c>   2</c></rc>
    <rc><c>O </c><c>   2</c></rc>
    <rc><c>O </c><c>   2</c></rc>
    <rc><c>O </c><c>   2</c></rc>
    <rc><c>O </c><c>   2</c></rc>
    <rc><c>O </c><c>   2</c></rc>
    <rc><c>O </c><c>   2</c></rc>
    <rc><c>O </c><c>   2</c></rc>
    <rc><c>O </c><c>   2</c></rc>
    <rc><c>O </c><c>   2</c></rc>
    <rc><c>O </c><c>   2</c></rc>
    <rc><c>O </c><c>   2</c></rc>
    <rc><c>O </c><c>   2</c></rc>
    <rc><c>O </c><c>   2</c></rc>
    <rc><c>O </c><c>   2</c></rc>
    <rc><c>O </c><c>   2</c></rc>
    <rc><c>O </c><c>   2</c></rc>
    <rc><c>O </c><c>   2</c></rc>
    <rc><c>Cl</c><c>   3</c></rc>
    <rc><c>Cl</c><c>   3</c></rc>
    <rc><c>Cl</c><c>   3</c></rc>
    <rc><c>Cl</c><c>   3</c></rc>
    <rc><c>Cl</c><c>   3</c></rc>
    <rc><c>Cl</c><c>   3</c></rc>
    <rc><c>Cl</c><c>   3</c></rc>
    <rc><c>Cl</c><c>   3</c></rc>
    <rc><c>Cl</c><c>   3</c></rc>
    <rc><c>Cl</c><c>   3</c></rc>
    <rc><c>Cl</c><c>   3</c></rc>
    <rc><c>Cl</c><c>   3</c></rc>
    <rc><c>Cl</c><c>   3</c></rc>
    <rc><c>Cl</c><c>   3</c></rc>
    <rc><c>Cl</c><c>   3</c></rc>
    <rc><c>Cl</c><c>   3</c></rc>
    <rc><c>Cl</c><c>   3</c></rc>
    <rc><c>Cl</c><c>   3</c></rc>
    <rc><c>Cl</c><c>   3</c></rc>
    <rc><c>Cl</c><c>   3</c></rc>
    <rc><c>Cl</c><c>   3</c></rc>
    <rc><c>Cl</c><c>   3</c></rc>
    <rc><c>Cl</c><c>   3</c></rc>
    <rc><c>Cl</c><c>   3</c></rc>
    <rc><c>Cl</c><c>   3</c></rc>
    <rc><c>Cl</c><c>   3</c></rc>
    <rc><c>Cl</c><c>   3</c></rc>
    <rc><c>Cl</c><c>   3</c></rc>
    <rc><c>Cl</c><c>   3</c></rc>
    <rc><c>Cl</c><c>   3</c></rc>
    <rc><c>Cl</c><c>   3</c></rc>
    <rc><c>Cl</c><c>   3</c></rc>
   </set>
  </array>
  <array name="atomtypes" >
   <dimension dim="1">type</dimension>
   <field type="int">atomspertype</field>
   <field type="string">element</field>
   <field>mass</field>
   <field>valence</field>
   <field type="string">pseudopotential</field>
   <set>
    <rc><c>  96</c><c>Na</c><c>     22.99000000</c><c>      1.00000000</c><c>  PAW_PBE Na 08Apr2002                  </c></rc>
    <rc><c>  32</c><c>O </c><c>     16.00000000</c><c>      6.00000000</c><c>  PAW_PBE O 08Apr2002                   </c></rc>
    <rc><c>  32</c><c>Cl</c><c>     35.45300000</c><c>      7.00000000</c><c>  PAW_PBE Cl 06Sep2000                  </c></rc>
   </set>
  </array>
 </atominfo>
 <structure name="initialpos" >
  <crystal>
   <varray name="basis" >
    <v>      -8.91475688       8.91475688       0.00000000 </v>
    <v>     -17.82951376       0.00000000       0.00000000 </v>
    <v>       0.00000000       0.00000000      27.60082437 </v>
   </varray>
   <i name="volume">   4387.03457046 </i>
   <varray name="rec_basis" >
    <v>       0.00000000       0.11217356       0.00000000 </v>
    <v>      -0.05608678      -0.05608678       0.00000000 </v>
    <v>       0.00000000       0.00000000       0.03623080 </v>
   </varray>
  </crystal>
  <varray name="positions" >
   <v>       0.25000009       0.00000000       0.29813200 </v>
   <v>       0.00000005       0.12500002       0.21738481 </v>
   <v>       0.25000009       0.00000000       0.45962639 </v>
   <v>       0.00000005       0.12500002       0.37887921 </v>
   <v>       0.25000009       0.00000000       0.62112079 </v>
   <v>       0.00000005       0.12500002       0.54037361 </v>
   <v>       0.25000009       0.00000000       0.78261519 </v>
   <v>       0.00000005       0.12500002       0.70186800 </v>
   <v>       0.25000009       0.12499998       0.21738481 </v>
   <v>       0.25000009       0.25000000       0.29813200 </v>
   <v>       0.00000005       0.37500002       0.21738481 </v>
   <v>       0.25000009       0.12499998       0.37887921 </v>
   <v>       0.25000009       0.25000000       0.45962639 </v>
   <v>       0.00000005       0.37500002       0.37887921 </v>
   <v>       0.25000009       0.12499998       0.54037361 </v>
   <v>       0.25000009       0.25000000       0.62112079 </v>
   <v>       0.00000005       0.37500002       0.54037361 </v>
   <v>       0.25000009       0.12499998       0.70186800 </v>
   <v>       0.25000009       0.25000000       0.78261519 </v>
   <v>       0.00000005       0.37500002       0.70186800 </v>
   <v>       0.25000009       0.37499998       0.21738481 </v>
   <v>       0.25000009       0.50000000       0.29813200 </v>
   <v>       0.00000005       0.62500002       0.21738481 </v>
   <v>       0.25000009       0.37499998       0.37887921 </v>
   <v>       0.25000009       0.50000000       0.45962639 </v>
   <v>       0.00000005       0.62500002       0.37887921 </v>
   <v>       0.25000009       0.37499998       0.54037361 </v>
   <v>       0.25000009       0.50000000       0.62112079 </v>
   <v>       0.00000005       0.62500002       0.54037361 </v>
   <v>       0.25000009       0.37499998       0.70186800 </v>
   <v>       0.25000009       0.50000000       0.78261519 </v>
   <v>       0.00000005       0.62500002       0.70186800 </v>
   <v>       0.25000009       0.62499998       0.21738481 </v>
   <v>       0.25000009       0.75000000       0.29813200 </v>
   <v>       0.00000005       0.87500002       0.21738481 </v>
   <v>       0.25000009       0.62499998       0.37887921 </v>
   <v>       0.25000009       0.75000000       0.45962639 </v>
   <v>       0.00000005       0.87500002       0.37887921 </v>
   <v>       0.25000009       0.62499998       0.54037361 </v>
   <v>       0.25000009       0.75000000       0.62112079 </v>
   <v>       0.00000005       0.87500002       0.54037361 </v>
   <v>       0.25000009       0.62499998       0.70186800 </v>
   <v>       0.25000009       0.75000000       0.78261519 </v>
   <v>       0.00000005       0.87500002       0.70186800 </v>
   <v>       0.25000009       0.87499998       0.21738481 </v>
   <v>       0.25000009       0.87499998       0.37887921 </v>
   <v>       0.25000009       0.87499998       0.54037361 </v>
   <v>       0.25000009       0.87499998       0.70186800 </v>
   <v>       0.75000009       0.00000000       0.29813200 </v>
   <v>       0.50000005       0.12500002       0.21738481 </v>
   <v>       0.75000009       0.00000000       0.45962639 </v>
   <v>       0.50000005       0.12500002       0.37887921 </v>
   <v>       0.75000009       0.00000000       0.62112079 </v>
   <v>       0.50000005       0.12500002       0.54037361 </v>
   <v>       0.75000009       0.00000000       0.78261519 </v>
   <v>       0.50000005       0.12500002       0.70186800 </v>
   <v>       0.75000009       0.12499998       0.21738481 </v>
   <v>       0.75000009       0.25000000       0.29813200 </v>
   <v>       0.50000005       0.37500002       0.21738481 </v>
   <v>       0.75000009       0.12499998       0.37887921 </v>
   <v>       0.75000009       0.25000000       0.45962639 </v>
   <v>       0.50000005       0.37500002       0.37887921 </v>
   <v>       0.75000009       0.12499998       0.54037361 </v>
   <v>       0.75000009       0.25000000       0.62112079 </v>
   <v>       0.50000005       0.37500002       0.54037361 </v>
   <v>       0.75000009       0.12499998       0.70186800 </v>
   <v>       0.75000009       0.25000000       0.78261519 </v>
   <v>       0.50000005       0.37500002       0.70186800 </v>
   <v>       0.75000009       0.37499998       0.21738481 </v>
   <v>       0.75000009       0.50000000       0.29813200 </v>
   <v>       0.50000005       0.62500002       0.21738481 </v>
   <v>       0.75000009       0.37499998       0.37887921 </v>
   <v>       0.75000009       0.50000000       0.45962639 </v>
   <v>       0.50000005       0.62500002       0.37887921 </v>
   <v>       0.75000009       0.37499998       0.54037361 </v>
   <v>       0.75000009       0.50000000       0.62112079 </v>
   <v>       0.50000005       0.62500002       0.54037361 </v>
   <v>       0.75000009       0.37499998       0.70186800 </v>
   <v>       0.75000009       0.50000000       0.78261519 </v>
   <v>       0.50000005       0.62500002       0.70186800 </v>
   <v>       0.75000009       0.62499998       0.21738481 </v>
   <v>       0.75000009       0.75000000       0.29813200 </v>
   <v>       0.50000005       0.87500002       0.21738481 </v>
   <v>       0.75000009       0.62499998       0.37887921 </v>
   <v>       0.75000009       0.75000000       0.45962639 </v>
   <v>       0.50000005       0.87500002       0.37887921 </v>
   <v>       0.75000009       0.62499998       0.54037361 </v>
   <v>       0.75000009       0.75000000       0.62112079 </v>
   <v>       0.50000005       0.87500002       0.54037361 </v>
   <v>       0.75000009       0.62499998       0.70186800 </v>
   <v>       0.75000009       0.75000000       0.78261519 </v>
   <v>       0.50000005       0.87500002       0.70186800 </v>
   <v>       0.75000009       0.87499998       0.21738481 </v>
   <v>       0.75000009       0.87499998       0.37887921 </v>
   <v>       0.75000009       0.87499998       0.54037361 </v>
   <v>       0.75000009       0.87499998       0.70186800 </v>
   <v>       0.25000009       0.00000000       0.21738481 </v>
   <v>       0.25000009       0.00000000       0.37887921 </v>
   <v>       0.25000009       0.00000000       0.54037361 </v>
   <v>       0.25000009       0.00000000       0.70186800 </v>
   <v>       0.25000009       0.25000000       0.21738481 </v>
   <v>       0.25000009       0.25000000       0.37887921 </v>
   <v>       0.25000009       0.25000000       0.54037361 </v>
   <v>       0.25000009       0.25000000       0.70186800 </v>
   <v>       0.25000009       0.50000000       0.21738481 </v>
   <v>       0.25000009       0.50000000       0.37887921 </v>
   <v>       0.25000009       0.50000000       0.54037361 </v>
   <v>       0.25000009       0.50000000       0.70186800 </v>
   <v>       0.25000009       0.75000000       0.21738481 </v>
   <v>       0.25000009       0.75000000       0.37887921 </v>
   <v>       0.25000009       0.75000000       0.54037361 </v>
   <v>       0.25000009       0.75000000       0.70186800 </v>
   <v>       0.75000009       0.00000000       0.21738481 </v>
   <v>       0.75000009       0.00000000       0.37887921 </v>
   <v>       0.75000009       0.00000000       0.54037361 </v>
   <v>       0.75000009       0.00000000       0.70186800 </v>
   <v>       0.75000009       0.25000000       0.21738481 </v>
   <v>       0.75000009       0.25000000       0.37887921 </v>
   <v>       0.75000009       0.25000000       0.54037361 </v>
   <v>       0.75000009       0.25000000       0.70186800 </v>
   <v>       0.75000009       0.50000000       0.21738481 </v>
   <v>       0.75000009       0.50000000       0.37887921 </v>
   <v>       0.75000009       0.50000000       0.54037361 </v>
   <v>       0.75000009       0.50000000       0.70186800 </v>
   <v>       0.75000009       0.75000000       0.21738481 </v>
   <v>       0.75000009       0.75000000       0.37887921 </v>
   <v>       0.75000009       0.75000000       0.54037361 </v>
   <v>       0.75000009       0.75000000       0.70186800 </v>
   <v>       0.00000005       0.00000000       0.29813200 </v>
   <v>       0.00000005       0.00000000       0.45962639 </v>
   <v>       0.00000005       0.00000000       0.62112079 </v>
   <v>       0.00000005       0.00000000       0.78261519 </v>
   <v>       0.00000005       0.25000000       0.29813200 </v>
   <v>       0.00000005       0.25000000       0.45962639 </v>
   <v>       0.00000005       0.25000000       0.62112079 </v>
   <v>       0.00000005       0.25000000       0.78261519 </v>
   <v>       0.00000005       0.50000000       0.29813200 </v>
   <v>       0.00000005       0.50000000       0.45962639 </v>
   <v>       0.00000005       0.50000000       0.62112079 </v>
   <v>       0.00000005       0.50000000       0.78261519 </v>
   <v>       0.00000005       0.75000000       0.29813200 </v>
   <v>       0.00000005       0.75000000       0.45962639 </v>
   <v>       0.00000005       0.75000000       0.62112079 </v>
   <v>       0.00000005       0.75000000       0.78261519 </v>
   <v>       0.50000005       0.00000000       0.29813200 </v>
   <v>       0.50000005       0.00000000       0.45962639 </v>
   <v>       0.50000005       0.00000000       0.62112079 </v>
   <v>       0.50000005       0.00000000       0.78261519 </v>
   <v>       0.50000005       0.25000000       0.29813200 </v>
   <v>       0.50000005       0.25000000       0.45962639 </v>
   <v>       0.50000005       0.25000000       0.62112079 </v>
   <v>       0.50000005       0.25000000       0.78261519 </v>
   <v>       0.50000005       0.50000000       0.29813200 </v>
   <v>       0.50000005       0.50000000       0.45962639 </v>
   <v>       0.50000005       0.50000000       0.62112079 </v>
   <v>       0.50000005       0.50000000       0.78261519 </v>
   <v>       0.50000005       0.75000000       0.29813200 </v>
   <v>       0.50000005       0.75000000       0.45962639 </v>
   <v>       0.50000005       0.75000000       0.62112079 </v>
   <v>       0.50000005       0.75000000       0.78261519 </v>
  </varray>
 </structure>
 <calculation>
  <scstep>
   <time name="dav">    4.28    4.36</time>
   <time name="total">    4.41    4.52</time>
   <dipole>
    <v name="dipole">      0.00000000       0.00000000       0.00934888 </v>
    <i name="Tr[quadrupol]"> -22275.77092055 </i>
    <i name="Echarged">      0.00000000 </i>
    <i name="Edipol_quadrupol">      0.00000000 </i>
    <i name="Eion">      0.00000000 </i>
   </dipole>
   <energy>
    <i name="alphaZ">     -6.06082711 </i>
    <i name="ewald">  26346.76587164 </i>
    <i name="hartreedc"> -51244.38893002 </i>
    <i name="XCdc">  -1990.06165094 </i>
    <i name="pawpsdc">  25326.51111861 </i>
    <i name="pawaedc"> -21786.89270365 </i>
    <i name="eentropy">     -0.16125135 </i>
    <i name="bandstr">    162.09909763 </i>
    <i name="atom">  27438.53791910 </i>
    <i name="e_fr_energy">   4246.34864390 </i>
    <i name="e_wo_entrp">   4246.50989525 </i>
    <i name="e_0_energy">   4246.42926958 </i>
   </energy>
  </scstep>
  <scstep>
   <time name="dav">    5.10    5.17</time>
   <time name="total">    5.10    5.17</time>
   <dipole>
    <v name="dipole">      0.00000000       0.00000000       0.00934888 </v>
    <i name="Tr[quadrupol]"> -22275.77092055 </i>
    <i name="Echarged">      0.00000000 </i>
    <i name="Edipol_quadrupol">      0.00000000 </i>
    <i name="Eion">      0.00000000 </i>
   </dipole>
   <energy>
    <i name="e_fr_energy">    336.31441911 </i>
    <i name="e_wo_entrp">    336.31441911 </i>
    <i name="e_0_energy">    336.31441911 </i>
   </energy>
  </scstep>
  <scstep>
   <time name="dav">    5.35    5.41</time>
   <time name="total">    5.39    5.51</time>
   <dipole>
    <v name="dipole">      0.00000000       0.00000000       0.00934888 </v>
    <i name="Tr[quadrupol]"> -22275.77092055 </i>
    <i name="Echarged">      0.00000000 </i>
    <i name="Edipol_quadrupol">      0.00000000 </i>
    <i name="Eion">      0.00000000 </i>
   </dipole>
   <energy>
    <i name="e_fr_energy">   -704.63869755 </i>
    <i name="e_wo_entrp">   -704.63869755 </i>
    <i name="e_0_energy">   -704.63869755 </i>
   </energy>
  </scstep>
  <scstep>
   <time name="dav">    4.78    4.84</time>
   <time name="total">    4.78    4.84</time>
   <dipole>
    <v name="dipole">      0.00000000       0.00000000       0.00934888 </v>
    <i name="Tr[quadrupol]"> -22275.77092055 </i>
    <i name="Echarged">      0.00000000 </i>
    <i name="Edipol_quadrupol">      0.00000000 </i>
    <i name="Eion">      0.00000000 </i>
   </dipole>
   <energy>
    <i name="e_fr_energy">   -736.29087876 </i>
    <i name="e_wo_entrp">   -736.29087876 </i>
    <i name="e_0_energy">   -736.29087876 </i>
   </energy>
  </scstep>
  <scstep>
   <time name="dav">    5.09    5.21</time>
   <time name="total">    5.22    5.33</time>
   <dipole>
    <v name="dipole">      0.00000000       0.00000000       0.00934888 </v>
    <i name="Tr[quadrupol]"> -22275.77092055 </i>
    <i name="Echarged">      0.00000000 </i>
    <i name="Edipol_quadrupol">      0.00000000 </i>
    <i name="Eion">      0.00000000 </i>
   </dipole>
   <energy>
    <i name="e_fr_energy">   -737.37033020 </i>
    <i name="e_wo_entrp">   -737.37033020 </i>
    <i name="e_0_energy">   -737.37033020 </i>
   </energy>
  </scstep>
  <scstep>
   <time name="diag">    0.64    0.65</time>
   <time name="diis">    1.71    1.71</time>
   <time name="orth">    0.39    0.39</time>
   <time name="total">    3.00    3.01</time>
   <dipole>
    <v name="dipole">      0.00000000       0.00000000      -0.15430895 </v>
    <i name="Tr[quadrupol]"> -22294.27939193 </i>
    <i name="Echarged">      0.00000000 </i>
    <i name="Edipol_quadrupol">      0.00000000 </i>
    <i name="Eion">      0.00000000 </i>
   </dipole>
   <energy>
    <i name="e_fr_energy">   -579.38690471 </i>
    <i name="e_wo_entrp">   -579.38690471 </i>
    <i name="e_0_energy">   -579.38690471 </i>
   </energy>
  </scstep>
  <scstep>
   <time name="diag">    0.72    0.72</time>
   <time name="diis">    1.35    1.35</time>
   <time name="orth">    0.23    0.23</time>
   <time name="total">    2.69    2.81</time>
   <dipole>
    <v name="dipole">      0.00000000       0.00000000      -0.15799809 </v>
    <i name="Tr[quadrupol]"> -22307.65212963 </i>
    <i name="Echarged">      0.00000000 </i>
    <i name="Edipol_quadrupol">      0.00000000 </i>
    <i name="Eion">      0.00000000 </i>
   </dipole>
   <energy>
    <i name="e_fr_energy">   -580.86326466 </i>
    <i name="e_wo_entrp">   -580.86326466 </i>
    <i name="e_0_energy">   -580.86326466 </i>
   </energy>
  </scstep>
  <scstep>
   <time name="diag">    0.65    0.65</time>
   <time name="diis">    1.33    1.34</time>
   <time name="orth">    0.23    0.23</time>
   <time name="total">    2.45    2.47</time>
   <dipole>
    <v name="dipole">      0.00000000       0.00000000      -0.21587193 </v>
    <i name="Tr[quadrupol]"> -22329.43513053 </i>
    <i name="Echarged">      0.00000000 </i>
    <i name="Edipol_quadrupol">      0.00000000 </i>
    <i name="Eion">      0.00000000 </i>
   </dipole>
   <energy>
    <i name="e_fr_energy">   -576.86023562 </i>
    <i name="e_wo_entrp">   -576.86023562 </i>
    <i name="e_0_energy">   -576.86023562 </i>
   </energy>
  </scstep>
  <scstep>
   <time name="diag">    0.71    0.78</time>
   <time name="diis">    1.16    1.28</time>
   <time name="orth">    0.22    0.24</time>
   <time name="total">    2.33    2.57</time>
   <dipole>
    <v name="dipole">      0.00000000       0.00000000      -0.28808894 </v>
    <i name="Tr[quadrupol]"> -22353.36395347 </i>
    <i name="Echarged">      0.00000000 </i>
    <i name="Edipol_quadrupol">      0.00000000 </i>
    <i name="Eion">      0.00000000 </i>
   </dipole>
   <energy>
    <i name="e_fr_energy">   -574.20290550 </i>
    <i name="e_wo_entrp">   -574.20290550 </i>
    <i name="e_0_energy">   -574.20290550 </i>
   </energy>
  </scstep>
  <scstep>
   <time name="diag">    0.86    0.86</time>
   <time name="diis">    1.37    1.49</time>
   <time name="orth">    0.25    0.25</time>
   <time name="total">    2.73    2.85</time>
   <dipole>
    <v name="dipole">      0.00000000       0.00000000      -0.28940355 </v>
    <i name="Tr[quadrupol]"> -22356.11298462 </i>
    <i name="Echarged">      0.00000000 </i>
    <i name="Edipol_quadrupol">      0.00000000 </i>
    <i name="Eion">      0.00000000 </i>
   </dipole>
   <energy>
    <i name="e_fr_energy">   -574.44909218 </i>
    <i name="e_wo_entrp">   -574.44909218 </i>
    <i name="e_0_energy">   -574.44909218 </i>
   </energy>
  </scstep>
  <scstep>
   <time name="diag">    0.65    0.71</time>
   <time name="diis">    1.17    1.17</time>
   <time name="orth">    0.23    0.23</time>
   <time name="total">    2.32    2.39</time>
   <dipole>
    <v name="dipole">      0.00000000       0.00000000      -0.29920467 </v>
    <i name="Tr[quadrupol]"> -22367.25517976 </i>
    <i name="Echarged">      0.00000000 </i>
    <i name="Edipol_quadrupol">      0.00000000 </i>
    <i name="Eion">      0.00000000 </i>
   </dipole>
   <energy>
    <i name="e_fr_energy">   -574.48997040 </i>
    <i name="e_wo_entrp">   -574.48997040 </i>
    <i name="e_0_energy">   -574.48997040 </i>
   </energy>
  </scstep>
  <scstep>
   <time name="diag">    0.91    0.91</time>
   <time name="diis">    1.18    1.19</time>
   <time name="orth">    0.23    0.23</time>
   <time name="total">    2.58    2.59</time>
   <dipole>
    <v name="dipole">      0.00000000       0.00000000      -0.30648028 </v>
    <i name="Tr[quadrupol]"> -22375.07120990 </i>
    <i name="Echarged">      0.00000000 </i>
    <i name="Edipol_quadrupol">      0.00000000 </i>
    <i name="Eion">      0.00000000 </i>
   </dipole>
   <energy>
    <i name="e_fr_energy">   -574.41284896 </i>
    <i name="e_wo_entrp">   -574.41284896 </i>
    <i name="e_0_energy">   -574.41284896 </i>
   </energy>
  </scstep>
  <scstep>
   <time name="diag">    0.74    0.80</time>
   <time name="diis">    1.20    1.21</time>
   <time name="orth">    0.23    0.23</time>
   <time name="total">    2.65    2.73</time>
   <dipole>
    <v name="dipole">      0.00000000       0.00000000      -0.31727268 </v>
    <i name="Tr[quadrupol]"> -22378.77040421 </i>
    <i name="Echarged">      0.00000000 </i>
    <i name="Edipol_quadrupol">      0.00000000 </i>
    <i name="Eion">      0.00000000 </i>
   </dipole>
   <energy>
    <i name="e_fr_energy">   -574.38873830 </i>
    <i name="e_wo_entrp">   -574.38873830 </i>
    <i name="e_0_energy">   -574.38873830 </i>
   </energy>
  </scstep>
  <scstep>
   <time name="diag">    0.67    0.67</time>
   <time name="diis">    1.33    1.34</time>
   <time name="orth">    0.23    0.23</time>
   <time name="total">    2.48    2.49</time>
   <dipole>
    <v name="dipole">      0.00000000       0.00000000      -0.34327997 </v>
    <i name="Tr[quadrupol]"> -22386.41873661 </i>
    <i name="Echarged">      0.00000000 </i>
    <i name="Edipol_quadrupol">      0.00000000 </i>
    <i name="Eion">      0.00000000 </i>
   </dipole>
   <energy>
    <i name="e_fr_energy">   -574.38866538 </i>
    <i name="e_wo_entrp">   -574.38866538 </i>
    <i name="e_0_energy">   -574.38866538 </i>
   </energy>
  </scstep>
  <scstep>
   <time name="diag">    0.66    0.66</time>
   <time name="diis">    1.37    1.38</time>
   <time name="orth">    0.23    0.23</time>
   <time name="total">    2.49    2.50</time>
   <dipole>
    <v name="dipole">      0.00000000       0.00000000      -0.35563414 </v>
    <i name="Tr[quadrupol]"> -22389.13333461 </i>
    <i name="Echarged">      0.00000000 </i>
    <i name="Edipol_quadrupol">      0.00000000 </i>
    <i name="Eion">      0.00000000 </i>
   </dipole>
   <energy>
    <i name="e_fr_energy">   -574.39821084 </i>
    <i name="e_wo_entrp">   -574.39821084 </i>
    <i name="e_0_energy">   -574.39821084 </i>
   </energy>
  </scstep>
  <scstep>
   <time name="diag">    0.71    0.71</time>
   <time name="diis">    1.21    1.22</time>
   <time name="orth">    0.25    0.25</time>
   <time name="total">    2.43    2.44</time>
   <dipole>
    <v name="dipole">      0.00000000       0.00000000      -0.36175950 </v>
    <i name="Tr[quadrupol]"> -22390.72512296 </i>
    <i name="Echarged">      0.00000000 </i>
    <i name="Edipol_quadrupol">      0.00000000 </i>
    <i name="Eion">      0.00000000 </i>
   </dipole>
   <energy>
    <i name="e_fr_energy">   -574.39265888 </i>
    <i name="e_wo_entrp">   -574.39265888 </i>
    <i name="e_0_energy">   -574.39265888 </i>
   </energy>
  </scstep>
  <scstep>
   <time name="diag">    0.65    0.65</time>
   <time name="diis">    1.31    1.33</time>
   <time name="orth">    0.23    0.23</time>
   <time name="total">    2.46    2.48</time>
   <dipole>
    <v name="dipole">      0.00000000       0.00000000      -0.37480316 </v>
    <i name="Tr[quadrupol]"> -22393.39447893 </i>
    <i name="Echarged">      0.00000000 </i>
    <i name="Edipol_quadrupol">      0.00000000 </i>
    <i name="Eion">      0.00000000 </i>
   </dipole>
   <energy>
    <i name="e_fr_energy">   -574.39871789 </i>
    <i name="e_wo_entrp">   -574.39871789 </i>
    <i name="e_0_energy">   -574.39871789 </i>
   </energy>
  </scstep>
  <scstep>
   <time name="diag">    0.65    0.65</time>
   <time name="diis">    1.36    1.45</time>
   <time name="orth">    0.32    0.32</time>
   <time name="total">    2.57    2.66</time>
   <dipole>
    <v name="dipole">      0.00000000       0.00000000      -0.37559652 </v>
    <i name="Tr[quadrupol]"> -22393.52935351 </i>
    <i name="Echarged">      0.00000000 </i>
    <i name="Edipol_quadrupol">      0.00000000 </i>
    <i name="Eion">      0.00000000 </i>
   </dipole>
   <energy>
    <i name="e_fr_energy">   -574.39912410 </i>
    <i name="e_wo_entrp">   -574.39912410 </i>
    <i name="e_0_energy">   -574.39912410 </i>
   </energy>
  </scstep>
  <scstep>
   <time name="diag">    0.67    0.67</time>
   <time name="diis">    1.22    1.23</time>
   <time name="orth">    0.23    0.23</time>
   <time name="total">    2.37    2.38</time>
   <dipole>
    <v name="dipole">      0.00000000       0.00000000      -0.38037847 </v>
    <i name="Tr[quadrupol]"> -22394.22471568 </i>
    <i name="Echarged">      0.00000000 </i>
    <i name="Edipol_quadrupol">      0.00000000 </i>
    <i name="Eion">      0.00000000 </i>
   </dipole>
   <energy>
    <i name="e_fr_energy">   -574.40423267 </i>
    <i name="e_wo_entrp">   -574.40423267 </i>
    <i name="e_0_energy">   -574.40423267 </i>
   </energy>
  </scstep>
  <scstep>
   <time name="diag">    0.76    0.82</time>
   <time name="diis">    1.18    1.18</time>
   <time name="orth">    0.23    0.23</time>
   <time name="total">    2.50    2.67</time>
   <dipole>
    <v name="dipole">      0.00000000       0.00000000      -0.38463716 </v>
    <i name="Tr[quadrupol]"> -22394.63361045 </i>
    <i name="Echarged">      0.00000000 </i>
    <i name="Edipol_quadrupol">      0.00000000 </i>
    <i name="Eion">      0.00000000 </i>
   </dipole>
   <energy>
    <i name="e_fr_energy">   -574.40773275 </i>
    <i name="e_wo_entrp">   -574.40773275 </i>
    <i name="e_0_energy">   -574.40773275 </i>
   </energy>
  </scstep>
  <scstep>
   <time name="diag">    0.87    0.93</time>
   <time name="diis">    1.30    1.30</time>
   <time name="orth">    0.23    0.33</time>
   <time name="total">    2.70    2.85</time>
   <dipole>
    <v name="dipole">      0.00000000       0.00000000      -0.38474541 </v>
    <i name="Tr[quadrupol]"> -22394.65624258 </i>
    <i name="Echarged">      0.00000000 </i>
    <i name="Edipol_quadrupol">      0.00000000 </i>
    <i name="Eion">      0.00000000 </i>
   </dipole>
   <energy>
    <i name="e_fr_energy">   -574.40821422 </i>
    <i name="e_wo_entrp">   -574.40821422 </i>
    <i name="e_0_energy">   -574.40821422 </i>
   </energy>
  </scstep>
  <scstep>
   <time name="diag">    0.69    0.69</time>
   <time name="diis">    1.22    1.29</time>
   <time name="orth">    0.24    0.29</time>
   <time name="total">    2.39    2.51</time>
   <dipole>
    <v name="dipole">      0.00000000       0.00000000      -0.38468014 </v>
    <i name="Tr[quadrupol]"> -22394.65948557 </i>
    <i name="Echarged">      0.00000000 </i>
    <i name="Edipol_quadrupol">      0.00000000 </i>
    <i name="Eion">      0.00000000 </i>
   </dipole>
   <energy>
    <i name="e_fr_energy">   -574.40861189 </i>
    <i name="e_wo_entrp">   -574.40861189 </i>
    <i name="e_0_energy">   -574.40861189 </i>
   </energy>
  </scstep>
  <scstep>
   <time name="diag">    0.66    0.66</time>
   <time name="diis">    1.24    1.24</time>
   <time name="orth">    0.23    0.23</time>
   <time name="total">    2.40    2.40</time>
   <dipole>
    <v name="dipole">      0.00000000       0.00000000      -0.38435339 </v>
    <i name="Tr[quadrupol]"> -22394.68012785 </i>
    <i name="Echarged">      0.00000000 </i>
    <i name="Edipol_quadrupol">      0.00000000 </i>
    <i name="Eion">      0.00000000 </i>
   </dipole>
   <energy>
    <i name="e_fr_energy">   -574.40868726 </i>
    <i name="e_wo_entrp">   -574.40868726 </i>
    <i name="e_0_energy">   -574.40868726 </i>
   </energy>
  </scstep>
  <scstep>
   <time name="diag">    0.65    0.65</time>
   <time name="diis">    1.31    1.32</time>
   <time name="orth">    0.25    0.25</time>
   <time name="total">    2.62    2.63</time>
   <dipole>
    <v name="dipole">      0.00000000       0.00000000      -0.38400002 </v>
    <i name="Tr[quadrupol]"> -22394.68605618 </i>
    <i name="Echarged">      0.00000000 </i>
    <i name="Edipol_quadrupol">      0.00000000 </i>
    <i name="Eion">      0.00000000 </i>
   </dipole>
   <energy>
    <i name="e_fr_energy">   -574.40870539 </i>
    <i name="e_wo_entrp">   -574.40870539 </i>
    <i name="e_0_energy">   -574.40870539 </i>
   </energy>
  </scstep>
  <scstep>
   <time name="diag">    0.64    0.64</time>
   <time name="diis">    1.25    1.25</time>
   <time name="orth">    0.22    0.22</time>
   <time name="total">    2.38    2.38</time>
   <dipole>
    <v name="dipole">      0.00000000       0.00000000      -0.38374078 </v>
    <i name="Tr[quadrupol]"> -22394.69190710 </i>
    <i name="Echarged">      0.00000000 </i>
    <i name="Edipol_quadrupol">      0.00000000 </i>
    <i name="Eion">      0.00000000 </i>
   </dipole>
   <energy>
    <i name="e_fr_energy">   -574.40871449 </i>
    <i name="e_wo_entrp">   -574.40871449 </i>
    <i name="e_0_energy">   -574.40871449 </i>
   </energy>
  </scstep>
  <scstep>
   <time name="diag">    0.65    0.65</time>
   <time name="diis">    1.10    1.25</time>
   <time name="orth">    0.23    0.23</time>
   <time name="total">    2.23    2.38</time>
   <dipole>
    <v name="dipole">      0.00000000       0.00000000      -0.38358714 </v>
    <i name="Tr[quadrupol]"> -22394.68760403 </i>
    <i name="Echarged">      0.00000000 </i>
    <i name="Edipol_quadrupol">      0.00000000 </i>
    <i name="Eion">      0.00000000 </i>
   </dipole>
   <energy>
    <i name="e_fr_energy">   -574.40871753 </i>
    <i name="e_wo_entrp">   -574.40871753 </i>
    <i name="e_0_energy">   -574.40871753 </i>
   </energy>
  </scstep>
  <scstep>
   <time name="diag">    0.68    0.69</time>
   <time name="diis">    1.22    1.22</time>
   <time name="orth">    0.23    0.23</time>
   <time name="total">    2.38    2.38</time>
   <dipole>
    <v name="dipole">      0.00000000       0.00000000      -0.38343391 </v>
    <i name="Tr[quadrupol]"> -22394.68603561 </i>
    <i name="Echarged">      0.00000000 </i>
    <i name="Edipol_quadrupol">      0.00000000 </i>
    <i name="Eion">      0.00000000 </i>
   </dipole>
   <energy>
    <i name="e_fr_energy">   -574.40871875 </i>
    <i name="e_wo_entrp">   -574.40871875 </i>
    <i name="e_0_energy">   -574.40871875 </i>
   </energy>
  </scstep>
  <scstep>
   <time name="diag">    0.66    0.67</time>
   <time name="diis">    1.03    1.11</time>
   <time name="orth">    0.23    0.23</time>
   <time name="total">    2.17    2.25</time>
   <dipole>
    <v name="dipole">      0.00000000       0.00000000      -0.38335427 </v>
    <i name="Tr[quadrupol]"> -22394.68722298 </i>
    <i name="Echarged">      0.00000000 </i>
    <i name="Edipol_quadrupol">      0.00000000 </i>
    <i name="Eion">      0.00000000 </i>
   </dipole>
   <energy>
    <i name="e_fr_energy">   -574.40871899 </i>
    <i name="e_wo_entrp">   -574.40871899 </i>
    <i name="e_0_energy">   -574.40871899 </i>
   </energy>
  </scstep>
  <scstep>
   <time name="diag">    0.67    0.67</time>
   <time name="diis">    1.05    1.06</time>
   <time name="orth">    0.23    0.23</time>
   <time name="total">    2.20    2.21</time>
   <dipole>
    <v name="dipole">      0.00000000       0.00000000      -0.38331080 </v>
    <i name="Tr[quadrupol]"> -22394.68766811 </i>
    <i name="Echarged">      0.00000000 </i>
    <i name="Edipol_quadrupol">      0.00000000 </i>
    <i name="Eion">      0.00000000 </i>
   </dipole>
   <energy>
    <i name="e_fr_energy">   -574.40871908 </i>
    <i name="e_wo_entrp">   -574.40871908 </i>
    <i name="e_0_energy">   -574.40871908 </i>
   </energy>
  </scstep>
  <scstep>
   <time name="diag">    0.69    0.70</time>
   <time name="diis">    0.77    0.91</time>
   <time name="orth">    0.24    0.24</time>
   <time name="total">    1.96    2.09</time>
   <dipole>
    <v name="dipole">      0.00000000       0.00000000      -0.38329102 </v>
    <i name="Tr[quadrupol]"> -22394.68751149 </i>
    <i name="Echarged">      0.00000000 </i>
    <i name="Edipol_quadrupol">      0.00000000 </i>
    <i name="Eion">      0.00000000 </i>
   </dipole>
   <energy>
    <i name="e_fr_energy">   -574.40871905 </i>
    <i name="e_wo_entrp">   -574.40871905 </i>
    <i name="e_0_energy">   -574.40871905 </i>
   </energy>
  </scstep>
  <scstep>
   <time name="diag">    0.64    0.64</time>
   <time name="diis">    0.75    0.75</time>
   <time name="orth">    0.22    0.28</time>
   <time name="total">    1.74    1.82</time>
   <dipole>
    <v name="dipole">      0.00000000       0.00000000      -0.38327852 </v>
    <i name="Tr[quadrupol]"> -22394.68739478 </i>
    <i name="Echarged">      0.00000000 </i>
    <i name="Edipol_quadrupol">      0.00000000 </i>
    <i name="Eion">      0.00000000 </i>
   </dipole>
   <energy>
    <i name="alphaZ">     -5.24640735 </i>
    <i name="ewald">  26346.76587164 </i>
    <i name="hartreedc"> -53185.61323161 </i>
    <i name="XCdc">  -1892.28981165 </i>
    <i name="pawpsdc">  33291.01695758 </i>
    <i name="pawaedc"> -29764.21844255 </i>
    <i name="eentropy">     -0.00000000 </i>
    <i name="bandstr">  -2803.36157421 </i>
    <i name="atom">  27438.53791910 </i>
    <i name="e_fr_energy">   -574.40871906 </i>
    <i name="e_wo_entrp">   -574.40871906 </i>
    <i name="e_0_energy">   -574.40871906 </i>
   </energy>
  </scstep>
  <structure>
   <crystal>
    <varray name="basis" >
     <v>      -8.91475688       8.91475688       0.00000000 </v>
     <v>     -17.82951376       0.00000000       0.00000000 </v>
     <v>       0.00000000       0.00000000      27.60082437 </v>
    </varray>
    <i name="volume">   4387.03457046 </i>
    <varray name="rec_basis" >
     <v>       0.00000000       0.11217356       0.00000000 </v>
     <v>      -0.05608678      -0.05608678       0.00000000 </v>
     <v>       0.00000000       0.00000000       0.03623080 </v>
    </varray>
   </crystal>
   <varray name="positions" >
    <v>       0.25000009       0.00000000       0.29813200 </v>
    <v>       0.00000005       0.12500002       0.21738481 </v>
    <v>       0.25000009       0.00000000       0.45962639 </v>
    <v>       0.00000005       0.12500002       0.37887921 </v>
    <v>       0.25000009       0.00000000       0.62112079 </v>
    <v>       0.00000005       0.12500002       0.54037361 </v>
    <v>       0.25000009       0.00000000       0.78261519 </v>
    <v>       0.00000005       0.12500002       0.70186800 </v>
    <v>       0.25000009       0.12499998       0.21738481 </v>
    <v>       0.25000009       0.25000000       0.29813200 </v>
    <v>       0.00000005       0.37500002       0.21738481 </v>
    <v>       0.25000009       0.12499998       0.37887921 </v>
    <v>       0.25000009       0.25000000       0.45962639 </v>
    <v>       0.00000005       0.37500002       0.37887921 </v>
    <v>       0.25000009       0.12499998       0.54037361 </v>
    <v>       0.25000009       0.25000000       0.62112079 </v>
    <v>       0.00000005       0.37500002       0.54037361 </v>
    <v>       0.25000009       0.12499998       0.70186800 </v>
    <v>       0.25000009       0.25000000       0.78261519 </v>
    <v>       0.00000005       0.37500002       0.70186800 </v>
    <v>       0.25000009       0.37499998       0.21738481 </v>
    <v>       0.25000009       0.50000000       0.29813200 </v>
    <v>       0.00000005       0.62500002       0.21738481 </v>
    <v>       0.25000009       0.37499998       0.37887921 </v>
    <v>       0.25000009       0.50000000       0.45962639 </v>
    <v>       0.00000005       0.62500002       0.37887921 </v>
    <v>       0.25000009       0.37499998       0.54037361 </v>
    <v>       0.25000009       0.50000000       0.62112079 </v>
    <v>       0.00000005       0.62500002       0.54037361 </v>
    <v>       0.25000009       0.37499998       0.70186800 </v>
    <v>       0.25000009       0.50000000       0.78261519 </v>
    <v>       0.00000005       0.62500002       0.70186800 </v>
    <v>       0.25000009       0.62499998       0.21738481 </v>
    <v>       0.25000009       0.75000000       0.29813200 </v>
    <v>       0.00000005       0.87500002       0.21738481 </v>
    <v>       0.25000009       0.62499998       0.37887921 </v>
    <v>       0.25000009       0.75000000       0.45962639 </v>
    <v>       0.00000005       0.87500002       0.37887921 </v>
    <v>       0.25000009       0.62499998       0.54037361 </v>
    <v>       0.25000009       0.75000000       0.62112079 </v>
    <v>       0.00000005       0.87500002       0.54037361 </v>
    <v>       0.25000009       0.62499998       0.70186800 </v>
    <v>       0.25000009       0.75000000       0.78261519 </v>
    <v>       0.00000005       0.87500002       0.70186800 </v>
    <v>       0.25000009       0.87499998       0.21738481 </v>
    <v>       0.25000009       0.87499998       0.37887921 </v>
    <v>       0.25000009       0.87499998       0.54037361 </v>
    <v>       0.25000009       0.87499998       0.70186800 </v>
    <v>       0.75000009       0.00000000       0.29813200 </v>
    <v>       0.50000005       0.12500002       0.21738481 </v>
    <v>       0.75000009       0.00000000       0.45962639 </v>
    <v>       0.50000005       0.12500002       0.37887921 </v>
    <v>       0.75000009       0.00000000       0.62112079 </v>
    <v>       0.50000005       0.12500002       0.54037361 </v>
    <v>       0.75000009       0.00000000       0.78261519 </v>
    <v>       0.50000005       0.12500002       0.70186800 </v>
    <v>       0.75000009       0.12499998       0.21738481 </v>
    <v>       0.75000009       0.25000000       0.29813200 </v>
    <v>       0.50000005       0.37500002       0.21738481 </v>
    <v>       0.75000009       0.12499998       0.37887921 </v>
    <v>       0.75000009       0.25000000       0.45962639 </v>
    <v>       0.50000005       0.37500002       0.37887921 </v>
    <v>       0.75000009       0.12499998       0.54037361 </v>
    <v>       0.75000009       0.25000000       0.62112079 </v>
    <v>       0.50000005       0.37500002       0.54037361 </v>
    <v>       0.75000009       0.12499998       0.70186800 </v>
    <v>       0.75000009       0.25000000       0.78261519 </v>
    <v>       0.50000005       0.37500002       0.70186800 </v>
    <v>       0.75000009       0.37499998       0.21738481 </v>
    <v>       0.75000009       0.50000000       0.29813200 </v>
    <v>       0.50000005       0.62500002       0.21738481 </v>
    <v>       0.75000009       0.37499998       0.37887921 </v>
    <v>       0.75000009       0.50000000       0.45962639 </v>
    <v>       0.50000005       0.62500002       0.37887921 </v>
    <v>       0.75000009       0.37499998       0.54037361 </v>
    <v>       0.75000009       0.50000000       0.62112079 </v>
    <v>       0.50000005       0.62500002       0.54037361 </v>
    <v>       0.75000009       0.37499998       0.70186800 </v>
    <v>       0.75000009       0.50000000       0.78261519 </v>
    <v>       0.50000005       0.62500002       0.70186800 </v>
    <v>       0.75000009       0.62499998       0.21738481 </v>
    <v>       0.75000009       0.75000000       0.29813200 </v>
    <v>       0.50000005       0.87500002       0.21738481 </v>
    <v>       0.75000009       0.62499998       0.37887921 </v>
    <v>       0.75000009       0.75000000       0.45962639 </v>
    <v>       0.50000005       0.87500002       0.37887921 </v>
    <v>       0.75000009       0.62499998       0.54037361 </v>
    <v>       0.75000009       0.75000000       0.62112079 </v>
    <v>       0.50000005       0.87500002       0.54037361 </v>
    <v>       0.75000009       0.62499998       0.70186800 </v>
    <v>       0.75000009       0.75000000       0.78261519 </v>
    <v>       0.50000005       0.87500002       0.70186800 </v>
    <v>       0.75000009       0.87499998       0.21738481 </v>
    <v>       0.75000009       0.87499998       0.37887921 </v>
    <v>       0.75000009       0.87499998       0.54037361 </v>
    <v>       0.75000009       0.87499998       0.70186800 </v>
    <v>       0.25000009       0.00000000       0.21738481 </v>
    <v>       0.25000009       0.00000000       0.37887921 </v>
    <v>       0.25000009       0.00000000       0.54037361 </v>
    <v>       0.25000009       0.00000000       0.70186800 </v>
    <v>       0.25000009       0.25000000       0.21738481 </v>
    <v>       0.25000009       0.25000000       0.37887921 </v>
    <v>       0.25000009       0.25000000       0.54037361 </v>
    <v>       0.25000009       0.25000000       0.70186800 </v>
    <v>       0.25000009       0.50000000       0.21738481 </v>
    <v>       0.25000009       0.50000000       0.37887921 </v>
    <v>       0.25000009       0.50000000       0.54037361 </v>
    <v>       0.25000009       0.50000000       0.70186800 </v>
    <v>       0.25000009       0.75000000       0.21738481 </v>
    <v>       0.25000009       0.75000000       0.37887921 </v>
    <v>       0.25000009       0.75000000       0.54037361 </v>
    <v>       0.25000009       0.75000000       0.70186800 </v>
[...]
       <r>    -7.6316     0.0000   128.0000 </r>
       <r>    -7.5543     0.0000   128.0000 </r>
       <r>    -7.4771     0.0000   128.0000 </r>
       <r>    -7.3999     0.0000   128.0000 </r>
       <r>    -7.3226     0.0000   128.0000 </r>
       <r>    -7.2454     0.0000   128.0000 </r>
       <r>    -7.1682     0.0000   128.0000 </r>
       <r>    -7.0909     0.0000   128.0000 </r>
       <r>    -7.0137     0.0000   128.0000 </r>
       <r>    -6.9365     0.0000   128.0000 </r>
       <r>    -6.8592     0.0000   128.0000 </r>
       <r>    -6.7820     0.0000   128.0000 </r>
       <r>    -6.7048     0.0000   128.0000 </r>
       <r>    -6.6275     0.0000   128.0000 </r>
       <r>    -6.5503     0.0000   128.0000 </r>
       <r>    -6.4731     0.0000   128.0000 </r>
       <r>    -6.3958     0.0000   128.0000 </r>
       <r>    -6.3186     0.0000   128.0000 </r>
       <r>    -6.2414     0.0000   128.0000 </r>
       <r>    -6.1641     0.0000   128.0000 </r>
       <r>    -6.0869     0.0000   128.0000 </r>
       <r>    -6.0097     0.0000   128.0000 </r>
       <r>    -5.9324     0.0000   128.0000 </r>
       <r>    -5.8552     0.0000   128.0000 </r>
       <r>    -5.7780     0.0000   128.0000 </r>
       <r>    -5.7007     0.0000   128.0000 </r>
       <r>    -5.6235     0.0000   128.0000 </r>
       <r>    -5.5463     0.0000   128.0000 </r>
       <r>    -5.4690     0.0000   128.0000 </r>
       <r>    -5.3918     0.0000   128.0000 </r>
       <r>    -5.3146     0.0000   128.0000 </r>
       <r>    -5.2373     0.0000   128.0000 </r>
       <r>    -5.1601     0.0000   128.0000 </r>
       <r>    -5.0829     0.0000   128.0000 </r>
       <r>    -5.0056     0.0000   128.0000 </r>
       <r>    -4.9284     0.0000   128.0000 </r>
       <r>    -4.8512     0.0000   128.0000 </r>
       <r>    -4.7739     0.0000   128.0000 </r>
       <r>    -4.6967     0.0000   128.0000 </r>
       <r>    -4.6195     0.0000   128.0000 </r>
       <r>    -4.5422     0.0000   128.0000 </r>
       <r>    -4.4650     0.0000   128.0000 </r>
       <r>    -4.3878     0.0013   128.0001 </r>
       <r>    -4.3105     0.0912   128.0071 </r>
       <r>    -4.2333     2.1937   128.1766 </r>
       <r>    -4.1561    20.0719   129.7268 </r>
       <r>    -4.0788    78.2410   135.7696 </r>
       <r>    -4.0016   150.7993   147.4164 </r>
       <r>    -3.9244   175.9703   161.0072 </r>
       <r>    -3.8471   196.4043   176.1762 </r>
       <r>    -3.7699   276.5446   197.5347 </r>
       <r>    -3.6927   300.8871   220.7732 </r>
       <r>    -3.6154   250.2335   240.0996 </r>
       <r>    -3.5382   212.0707   256.4786 </r>
       <r>    -3.4610   178.6134   270.2735 </r>
       <r>    -3.3837   174.1551   283.7241 </r>
       <r>    -3.3065   184.7143   297.9902 </r>
       <r>    -3.2293   155.5522   310.0041 </r>
       <r>    -3.1520    92.3492   317.1365 </r>
       <r>    -3.0748    31.8044   319.5929 </r>
       <r>    -2.9976     4.9629   319.9762 </r>
       <r>    -2.9203     0.3016   319.9995 </r>
       <r>    -2.8431     0.0066   320.0000 </r>
       <r>    -2.7659     0.0000   320.0000 </r>
       <r>    -2.6886     0.0000   320.0000 </r>
       <r>    -2.6114     0.0000   320.0000 </r>
       <r>    -2.5342     0.0000   320.0000 </r>
       <r>    -2.4569     0.0000   320.0000 </r>
       <r>    -2.3797     0.0000   320.0000 </r>
       <r>    -2.3025     0.0000   320.0000 </r>
       <r>    -2.2252     0.0000   320.0000 </r>
       <r>    -2.1480     0.0000   320.0000 </r>
       <r>    -2.0708     0.0000   320.0000 </r>
       <r>    -1.9935     0.0000   320.0000 </r>
       <r>    -1.9163     0.0000   320.0000 </r>
       <r>    -1.8391     0.0000   320.0000 </r>
       <r>    -1.7618     0.0000   320.0000 </r>
       <r>    -1.6846     0.0000   320.0000 </r>
       <r>    -1.6074     0.0000   320.0000 </r>
       <r>    -1.5301     0.0005   320.0000 </r>
       <r>    -1.4529     0.0350   320.0027 </r>
       <r>    -1.3757     0.8052   320.0649 </r>
       <r>    -1.2984     6.4063   320.5597 </r>
       <r>    -1.2212    20.9072   322.1744 </r>
       <r>    -1.1440    45.7089   325.7047 </r>
       <r>    -1.0667   112.0443   334.3583 </r>
       <r>    -0.9895   236.5170   352.6253 </r>
       <r>    -0.9123   334.8930   378.4903 </r>
       <r>    -0.8350   342.9411   404.9768 </r>
       <r>    -0.7578   315.8007   429.3672 </r>
       <r>    -0.6806   313.3942   453.5717 </r>
       <r>    -0.6033   264.7277   474.0176 </r>
       <r>    -0.5261   162.3458   486.5561 </r>
       <r>    -0.4489   124.4944   496.1712 </r>
       <r>    -0.3716   127.7928   506.0411 </r>
       <r>    -0.2944    64.4474   511.0186 </r>
       <r>    -0.2172    11.9226   511.9394 </r>
       <r>    -0.1399     0.7676   511.9987 </r>
       <r>    -0.0627     0.0167   512.0000 </r>
       <r>     0.0145     0.0001   512.0000 </r>
       <r>     0.0918     0.0000   512.0000 </r>
       <r>     0.1690     0.0000   512.0000 </r>
       <r>     0.2462     0.0000   512.0000 </r>
       <r>     0.3235     0.0000   512.0000 </r>
       <r>     0.4007     0.0000   512.0000 </r>
       <r>     0.4779     0.0000   512.0000 </r>
       <r>     0.5552     0.0000   512.0000 </r>
       <r>     0.6324     0.0000   512.0000 </r>
       <r>     0.7096     0.0000   512.0000 </r>
       <r>     0.7869     0.0000   512.0000 </r>
       <r>     0.8641     0.0000   512.0000 </r>
       <r>     0.9413     0.0000   512.0000 </r>
       <r>     1.0186     0.0000   512.0000 </r>
       <r>     1.0958     0.0000   512.0000 </r>
       <r>     1.1730     0.0001   512.0000 </r>
       <r>     1.2503     0.0068   512.0005 </r>
       <r>     1.3275     0.1829   512.0147 </r>
       <r>     1.4047     1.6086   512.1389 </r>
       <r>     1.4820     4.8454   512.5131 </r>
       <r>     1.5592     6.0347   512.9792 </r>
       <r>     1.6364     6.0116   513.4435 </r>
       <r>     1.7137     5.1009   513.8375 </r>
       <r>     1.7909     1.8605   513.9812 </r>
       <r>     1.8681     0.2341   513.9992 </r>
       <r>     1.9454     0.0116   514.0001 </r>
       <r>     2.0226     0.0773   514.0061 </r>
       <r>     2.0998     1.1333   514.0936 </r>
       <r>     2.1771     7.0442   514.6377 </r>
       <r>     2.2543    21.8241   516.3232 </r>
       <r>     2.3315    36.3831   519.1332 </r>
       <r>     2.4088    32.8746   521.6723 </r>
       <r>     2.4860    14.4533   522.7885 </r>
       <r>     2.5632     2.6173   522.9907 </r>
       <r>     2.6405     1.2058   523.0838 </r>
       <r>     2.7177     8.4245   523.7344 </r>
       <r>     2.7949    27.4826   525.8570 </r>
       <r>     2.8722    49.1542   529.6534 </r>
       <r>     2.9494    52.1488   533.6810 </r>
       <r>     3.0266    25.1208   535.6212 </r>
       <r>     3.1039     4.6087   535.9771 </r>
       <r>     3.1811     0.5975   536.0233 </r>
       <r>     3.2583     2.6057   536.2245 </r>
       <r>     3.3356    11.4250   537.1069 </r>
       <r>     3.4128    32.0229   539.5801 </r>
       <r>     3.4900    50.5912   543.4875 </r>
       <r>     3.5673    42.4358   546.7649 </r>
       <r>     3.6445    36.2879   549.5676 </r>
       <r>     3.7217    41.0372   552.7370 </r>
       <r>     3.7990    50.6683   556.6503 </r>
       <r>     3.8762    64.3982   561.6240 </r>
       <r>     3.9535    53.5970   565.7635 </r>
       <r>     4.0307    38.3885   568.7284 </r>
       <r>     4.1079    32.1295   571.2098 </r>
       <r>     4.1852    31.1332   573.6144 </r>
       <r>     4.2624    41.6209   576.8289 </r>
       <r>     4.3396    64.3667   581.8002 </r>
       <r>     4.4169    66.4046   586.9288 </r>
       <r>     4.4941    44.0633   590.3320 </r>
       <r>     4.5713    39.5697   593.3881 </r>
       <r>     4.6486    68.8517   598.7057 </r>
       <r>     4.7258    66.8332   603.8675 </r>
       <r>     4.8030    45.0446   607.3465 </r>
       <r>     4.8803    46.6554   610.9498 </r>
       <r>     4.9575    57.3322   615.3778 </r>
       <r>     5.0347    80.8182   621.6197 </r>
       <r>     5.1120    96.5172   629.0740 </r>
       <r>     5.1892    97.9490   636.6390 </r>
       <r>     5.2664   100.6453   644.4121 </r>
       <r>     5.3437   108.5459   652.7955 </r>
       <r>     5.4209   101.2557   660.6158 </r>
       <r>     5.4981    71.5653   666.1431 </r>
       <r>     5.5754    64.9769   671.1615 </r>
       <r>     5.6526    76.8669   677.0982 </r>
       <r>     5.7298    76.2642   682.9883 </r>
       <r>     5.8071    47.9242   686.6897 </r>
       <r>     5.8843    14.9707   687.8459 </r>
       <r>     5.9615     1.9062   687.9931 </r>
       <r>     6.0388     0.0874   687.9999 </r>
       <r>     6.1160     0.0014   688.0000 </r>
       <r>     6.1932     0.0000   688.0000 </r>
       <r>     6.2705     0.0000   688.0000 </r>
       <r>     6.3477     0.0000   688.0000 </r>
       <r>     6.4249     0.0000   688.0000 </r>
       <r>     6.5022     0.0000   688.0000 </r>
       <r>     6.5794     0.0000   688.0000 </r>
       <r>     6.6566     0.0000   688.0000 </r>
       <r>     6.7339     0.0000   688.0000 </r>
       <r>     6.8111     0.0000   688.0000 </r>
      </set>
     </set>
    </array>
   </total>
  </dos>
 </calculation>
 <structure name="finalpos" >
  <crystal>
   <varray name="basis" >
    <v>      -8.91475688       8.91475688       0.00000000 </v>
    <v>     -17.82951376       0.00000000       0.00000000 </v>
    <v>       0.00000000       0.00000000      27.60082437 </v>
   </varray>
   <i name="volume">   4387.03457046 </i>
   <varray name="rec_basis" >
    <v>       0.00000000       0.11217356       0.00000000 </v>
    <v>      -0.05608678      -0.05608678       0.00000000 </v>
    <v>       0.00000000       0.00000000       0.03623080 </v>
   </varray>
  </crystal>
  <varray name="positions" >
   <v>       0.25000272      -0.00000349       0.29581972 </v>
   <v>      -0.00019596       0.12506432       0.21293545 </v>
   <v>       0.25000225      -0.00000166       0.45960315 </v>
   <v>      -0.00002554       0.12621152       0.37774388 </v>
   <v>       0.25000269      -0.00000330       0.62308622 </v>
   <v>      -0.00022038       0.12486334       0.54141029 </v>
   <v>       0.25000429      -0.00000412       0.78523247 </v>
   <v>      -0.00006975       0.12425788       0.70509097 </v>
   <v>       0.25019618       0.12486613       0.21292172 </v>
   <v>       0.25000391       0.24999572       0.29589678 </v>
   <v>       0.00020844       0.37492580       0.21293544 </v>
   <v>       0.25256126       0.12367517       0.37751841 </v>
   <v>       0.25000000       0.25000652       0.45956203 </v>
   <v>      -0.00000529       0.37381036       0.37774386 </v>
   <v>       0.24965147       0.12508770       0.54139481 </v>
   <v>       0.25000248       0.24999647       0.62316892 </v>
   <v>       0.00022280       0.37514264       0.54141015 </v>
   <v>       0.24832080       0.12583991       0.70502724 </v>
   <v>       0.25000368       0.24999638       0.78548535 </v>
   <v>       0.00007649       0.37573719       0.70509068 </v>
   <v>       0.24980281       0.37514994       0.21293019 </v>
   <v>       0.25000299       0.49999609       0.29582021 </v>
   <v>      -0.00019589       0.62506431       0.21293549 </v>
   <v>       0.24743413       0.37632629       0.37751708 </v>
   <v>       0.25000086       0.49999715       0.45960387 </v>
   <v>      -0.00002458       0.62621123       0.37774411 </v>
   <v>       0.25036234       0.37491271       0.54139645 </v>
   <v>       0.24998975       0.49999983       0.62308285 </v>
   <v>      -0.00022130       0.62486402       0.54140986 </v>
   <v>       0.25168533       0.37415330       0.70502602 </v>
   <v>       0.25000399       0.49999629       0.78523307 </v>
   <v>      -0.00007015       0.62425804       0.70509069 </v>
   <v>       0.25019615       0.62486609       0.21292174 </v>
   <v>       0.25000413       0.74999538       0.29589624 </v>
   <v>       0.00020854       0.87492573       0.21293540 </v>
   <v>       0.25256219       0.62367287       0.37751840 </v>
   <v>       0.24999985       0.74999801       0.45956109 </v>
   <v>      -0.00000640       0.87381069       0.37774303 </v>
   <v>       0.24965146       0.62508788       0.54139484 </v>
   <v>       0.25000379       0.74999765       0.62316784 </v>
   <v>       0.00022386       0.87514036       0.54141065 </v>
   <v>       0.24831995       0.62584134       0.70502668 </v>
   <v>       0.25000345       0.74999673       0.78548460 </v>
   <v>       0.00007687       0.87573661       0.70509016 </v>
   <v>       0.24980289       0.87514985       0.21293015 </v>
   <v>       0.24743495       0.87632613       0.37751721 </v>
   <v>       0.25036098       0.87490332       0.54139024 </v>
   <v>       0.25168618       0.87415292       0.70502599 </v>
   <v>       0.75000269      -0.00000348       0.29581970 </v>
   <v>       0.49980402       0.12506433       0.21293546 </v>
   <v>       0.75000223      -0.00000165       0.45960315 </v>
   <v>       0.49997446       0.12621154       0.37774389 </v>
   <v>       0.75000258      -0.00000328       0.62308621 </v>
   <v>       0.49977961       0.12486334       0.54141027 </v>
   <v>       0.75000445      -0.00000422       0.78523246 </v>
   <v>       0.49993025       0.12425788       0.70509100 </v>
   <v>       0.75019618       0.12486612       0.21292166 </v>
   <v>       0.75000390       0.24999571       0.29589674 </v>
   <v>       0.50020841       0.37492581       0.21293539 </v>
   <v>       0.75256128       0.12367515       0.37751839 </v>
   <v>       0.75000002       0.25000650       0.45956201 </v>
   <v>       0.49999473       0.37381034       0.37774383 </v>
   <v>       0.74965149       0.12508768       0.54139482 </v>
   <v>       0.75000242       0.24999650       0.62316893 </v>
   <v>       0.50022282       0.37514263       0.54141014 </v>
   <v>       0.74832066       0.12583997       0.70502723 </v>
   <v>       0.75000382       0.24999627       0.78548536 </v>
   <v>       0.50007648       0.37573721       0.70509076 </v>
   <v>       0.74980284       0.37514992       0.21293012 </v>
   <v>       0.75000297       0.49999609       0.29582020 </v>
   <v>       0.49980412       0.62506431       0.21293547 </v>
   <v>       0.74743413       0.37632628       0.37751703 </v>
   <v>       0.75000080       0.49999716       0.45960387 </v>
   <v>       0.49997542       0.62621125       0.37774410 </v>
   <v>       0.75036236       0.37491270       0.54139645 </v>
   <v>       0.74998974       0.49999985       0.62308285 </v>
   <v>       0.49977870       0.62486401       0.54140985 </v>
   <v>       0.75168520       0.37415337       0.70502605 </v>
   <v>       0.75000421       0.49999620       0.78523307 </v>
   <v>       0.49992985       0.62425800       0.70509071 </v>
   <v>       0.75019619       0.62486607       0.21292170 </v>
   <v>       0.75000410       0.74999538       0.29589623 </v>
   <v>       0.50020852       0.87492574       0.21293537 </v>
   <v>       0.75256215       0.62367288       0.37751840 </v>
   <v>       0.74999985       0.74999800       0.45956110 </v>
   <v>       0.49999361       0.87381066       0.37774303 </v>
   <v>       0.74965147       0.62508787       0.54139486 </v>
   <v>       0.75000375       0.74999766       0.62316787 </v>
   <v>       0.50022387       0.87514036       0.54141066 </v>
   <v>       0.74831979       0.62584142       0.70502671 </v>
   <v>       0.75000366       0.74999662       0.78548464 </v>
   <v>       0.50007688       0.87573661       0.70509027 </v>
   <v>       0.74980289       0.87514985       0.21293012 </v>
   <v>       0.74743494       0.87632614       0.37751720 </v>
   <v>       0.75036100       0.87490331       0.54139023 </v>
   <v>       0.75168606       0.87415298       0.70502601 </v>
   <v>       0.25000285      -0.00000329       0.21456546 </v>
   <v>       0.24997595       0.00001166       0.37774855 </v>
   <v>       0.24999765       0.00000836       0.54135520 </v>
   <v>       0.25000202      -0.00000210       0.70494417 </v>
   <v>       0.25000484       0.24999582       0.21459356 </v>
   <v>       0.24997709       0.25001077       0.37776960 </v>
   <v>       0.25000403       0.24999646       0.54137749 </v>
   <v>       0.25000366       0.24999632       0.70501762 </v>
   <v>       0.25000293       0.49999662       0.21456563 </v>
   <v>       0.24997736       0.50000998       0.37774806 </v>
   <v>       0.25000244       0.49999518       0.54135416 </v>
   <v>       0.25000291       0.49999719       0.70494385 </v>
   <v>       0.25000471       0.74999594       0.21459338 </v>
   <v>       0.24997597       0.75001095       0.37776801 </v>
   <v>       0.24999803       0.75000815       0.54137649 </v>
   <v>       0.25000184       0.74999851       0.70501807 </v>
   <v>       0.75000286      -0.00000329       0.21456545 </v>
   <v>       0.74997594       0.00001166       0.37774854 </v>
   <v>       0.74999764       0.00000836       0.54135519 </v>
   <v>       0.75000201      -0.00000210       0.70494416 </v>
   <v>       0.75000484       0.24999582       0.21459353 </v>
   <v>       0.74997709       0.25001076       0.37776957 </v>
   <v>       0.75000403       0.24999646       0.54137749 </v>
   <v>       0.75000365       0.24999632       0.70501763 </v>
   <v>       0.75000294       0.49999661       0.21456561 </v>
   <v>       0.74997735       0.50000998       0.37774805 </v>
   <v>       0.75000244       0.49999518       0.54135415 </v>
   <v>       0.75000292       0.49999718       0.70494386 </v>
   <v>       0.75000470       0.74999594       0.21459337 </v>
   <v>       0.74997597       0.75001094       0.37776801 </v>
   <v>       0.74999803       0.75000815       0.54137650 </v>
   <v>       0.75000184       0.74999851       0.70501809 </v>
   <v>       0.00000189      -0.00000220       0.29460659 </v>
   <v>       0.00000069      -0.00000048       0.45954731 </v>
   <v>      -0.00000040      -0.00000011       0.62302548 </v>
   <v>       0.00000215      -0.00000209       0.78464401 </v>
   <v>       0.00000192       0.24999816       0.29464454 </v>
   <v>       0.00000164       0.24999956       0.45953485 </v>
   <v>       0.00000425       0.24999840       0.62297512 </v>
   <v>       0.00000232       0.24999782       0.78472302 </v>
   <v>       0.00000203       0.49999756       0.29460660 </v>
   <v>       0.00000391       0.49999852       0.45954636 </v>
   <v>       0.00000357       0.49999937       0.62302636 </v>
   <v>       0.00000205       0.49999814       0.78464414 </v>
   <v>       0.00000198       0.74999799       0.29464446 </v>
   <v>      -0.00000109       0.74999992       0.45953368 </v>
   <v>       0.00000110       0.74999932       0.62297609 </v>
   <v>       0.00000180       0.74999847       0.78472304 </v>
   <v>       0.50000189      -0.00000220       0.29460659 </v>
   <v>       0.50000069      -0.00000048       0.45954733 </v>
   <v>       0.49999960      -0.00000011       0.62302549 </v>
   <v>       0.50000215      -0.00000209       0.78464401 </v>
   <v>       0.50000192       0.24999816       0.29464454 </v>
   <v>       0.50000163       0.24999956       0.45953484 </v>
   <v>       0.50000424       0.24999839       0.62297513 </v>
   <v>       0.50000230       0.24999782       0.78472301 </v>
   <v>       0.50000203       0.49999756       0.29460660 </v>
   <v>       0.50000391       0.49999852       0.45954637 </v>
   <v>       0.50000356       0.49999938       0.62302637 </v>
   <v>       0.50000205       0.49999814       0.78464412 </v>
   <v>       0.50000198       0.74999799       0.29464446 </v>
   <v>       0.49999891       0.74999992       0.45953366 </v>
   <v>       0.50000110       0.74999932       0.62297609 </v>
   <v>       0.50000182       0.74999847       0.78472303 </v>
  </varray>
 </structure>
</modeling>
