unknown system                          
           1
    -8.914757    8.914757    0.000000
   -17.829514    0.000000    0.000000
     0.000000    0.000000   27.600824
   Na   O    Cl
    96    32    32
Direct configuration=     1
   0.25000009  0.00000000  0.29813200
   0.00000005  0.12500002  0.21738481
   0.25000009  0.00000000  0.45962639
   0.00000005  0.12500002  0.37887921
   0.25000009  0.00000000  0.62112079
   0.00000005  0.12500002  0.54037361
   0.25000009  0.00000000  0.78261519
   0.00000005  0.12500002  0.70186800
   0.25000009  0.12499998  0.21738481
   0.25000009  0.25000000  0.29813200
   0.00000005  0.37500002  0.21738481
   0.25000009  0.12499998  0.37887921
   0.25000009  0.25000000  0.45962639
   0.00000005  0.37500002  0.37887921
   0.25000009  0.12499998  0.54037361
   0.25000009  0.25000000  0.62112079
   0.00000005  0.37500002  0.54037361
   0.25000009  0.12499998  0.70186800
   0.25000009  0.25000000  0.78261519
   0.00000005  0.37500002  0.70186800
   0.25000009  0.37499998  0.21738481
   0.25000009  0.50000000  0.29813200
   0.00000005  0.62500002  0.21738481
   0.25000009  0.37499998  0.37887921
   0.25000009  0.50000000  0.45962639
   0.00000005  0.62500002  0.37887921
   0.25000009  0.37499998  0.54037361
   0.25000009  0.50000000  0.62112079
   0.00000005  0.62500002  0.54037361
   0.25000009  0.37499998  0.70186800
   0.25000009  0.50000000  0.78261519
   0.00000005  0.62500002  0.70186800
   0.25000009  0.62499998  0.21738481
   0.25000009  0.75000000  0.29813200
   0.00000005  0.87500002  0.21738481
   0.25000009  0.62499998  0.37887921
   0.25000009  0.75000000  0.45962639
   0.00000005  0.87500002  0.37887921
   0.25000009  0.62499998  0.54037361
   0.25000009  0.75000000  0.62112079
   0.00000005  0.87500002  0.54037361
   0.25000009  0.62499998  0.70186800
   0.25000009  0.75000000  0.78261519
   0.00000005  0.87500002  0.70186800
   0.25000009  0.87499998  0.21738481
   0.25000009  0.87499998  0.37887921
   0.25000009  0.87499998  0.54037361
   0.25000009  0.87499998  0.70186800
   0.75000009  0.00000000  0.29813200
   0.50000005  0.12500002  0.21738481
   0.75000009  0.00000000  0.45962639
   0.50000005  0.12500002  0.37887921
   0.75000009  0.00000000  0.62112079
   0.50000005  0.12500002  0.54037361
   0.75000009  0.00000000  0.78261519
   0.50000005  0.12500002  0.70186800
   0.75000009  0.12499998  0.21738481
   0.75000009  0.25000000  0.29813200
   0.50000005  0.37500002  0.21738481
   0.75000009  0.12499998  0.37887921
   0.75000009  0.25000000  0.45962639
   0.50000005  0.37500002  0.37887921
   0.75000009  0.12499998  0.54037361
   0.75000009  0.25000000  0.62112079
   0.50000005  0.37500002  0.54037361
   0.75000009  0.12499998  0.70186800
   0.75000009  0.25000000  0.78261519
   0.50000005  0.37500002  0.70186800
   0.75000009  0.37499998  0.21738481
   0.75000009  0.50000000  0.29813200
   0.50000005  0.62500002  0.21738481
   0.75000009  0.37499998  0.37887921
   0.75000009  0.50000000  0.45962639
   0.50000005  0.62500002  0.37887921
   0.75000009  0.37499998  0.54037361
   0.75000009  0.50000000  0.62112079
   0.50000005  0.62500002  0.54037361
   0.75000009  0.37499998  0.70186800
   0.75000009  0.50000000  0.78261519
   0.50000005  0.62500002  0.70186800
   0.75000009  0.62499998  0.21738481
   0.75000009  0.75000000  0.29813200
   0.50000005  0.87500002  0.21738481
   0.75000009  0.62499998  0.37887921
   0.75000009  0.75000000  0.45962639
   0.50000005  0.87500002  0.37887921
   0.75000009  0.62499998  0.54037361
   0.75000009  0.75000000  0.62112079
   0.50000005  0.87500002  0.54037361
   0.75000009  0.62499998  0.70186800
   0.75000009  0.75000000  0.78261519
   0.50000005  0.87500002  0.70186800
   0.75000009  0.87499998  0.21738481
   0.75000009  0.87499998  0.37887921
   0.75000009  0.87499998  0.54037361
   0.75000009  0.87499998  0.70186800
   0.25000009  0.00000000  0.21738481
   0.25000009  0.00000000  0.37887921
   0.25000009  0.00000000  0.54037361
   0.25000009  0.00000000  0.70186800
   0.25000009  0.25000000  0.21738481
   0.25000009  0.25000000  0.37887921
   0.25000009  0.25000000  0.54037361
   0.25000009  0.25000000  0.70186800
   0.25000009  0.50000000  0.21738481
   0.25000009  0.50000000  0.37887921
   0.25000009  0.50000000  0.54037361
   0.25000009  0.50000000  0.70186800
   0.25000009  0.75000000  0.21738481
   0.25000009  0.75000000  0.37887921
   0.25000009  0.75000000  0.54037361
   0.25000009  0.75000000  0.70186800
   0.75000009  0.00000000  0.21738481
   0.75000009  0.00000000  0.37887921
   0.75000009  0.00000000  0.54037361
   0.75000009  0.00000000  0.70186800
   0.75000009  0.25000000  0.21738481
   0.75000009  0.25000000  0.37887921
   0.75000009  0.25000000  0.54037361
   0.75000009  0.25000000  0.70186800
   0.75000009  0.50000000  0.21738481
   0.75000009  0.50000000  0.37887921
   0.75000009  0.50000000  0.54037361
   0.75000009  0.50000000  0.70186800
   0.75000009  0.75000000  0.21738481
   0.75000009  0.75000000  0.37887921
   0.75000009  0.75000000  0.54037361
   0.75000009  0.75000000  0.70186800
   0.00000005  0.00000000  0.29813200
   0.00000005  0.00000000  0.45962639
   0.00000005  0.00000000  0.62112079
   0.00000005  0.00000000  0.78261519
   0.00000005  0.25000000  0.29813200
   0.00000005  0.25000000  0.45962639
   0.00000005  0.25000000  0.62112079
   0.00000005  0.25000000  0.78261519
   0.00000005  0.50000000  0.29813200
   0.00000005  0.50000000  0.45962639
   0.00000005  0.50000000  0.62112079
   0.00000005  0.50000000  0.78261519
   0.00000005  0.75000000  0.29813200
   0.00000005  0.75000000  0.45962639
   0.00000005  0.75000000  0.62112079
   0.00000005  0.75000000  0.78261519
   0.50000005  0.00000000  0.29813200
   0.50000005  0.00000000  0.45962639
   0.50000005  0.00000000  0.62112079
   0.50000005  0.00000000  0.78261519
   0.50000005  0.25000000  0.29813200
   0.50000005  0.25000000  0.45962639
   0.50000005  0.25000000  0.62112079
   0.50000005  0.25000000  0.78261519
   0.50000005  0.50000000  0.29813200
   0.50000005  0.50000000  0.45962639
   0.50000005  0.50000000  0.62112079
   0.50000005  0.50000000  0.78261519
   0.50000005  0.75000000  0.29813200
   0.50000005  0.75000000  0.45962639
   0.50000005  0.75000000  0.62112079
   0.50000005  0.75000000  0.78261519
Direct configuration=     2
   0.25000009 -0.00000000  0.29816366
   0.00002386  0.12497562  0.21718438
   0.25000009 -0.00000000  0.45963873
  -0.00004349  0.12503979  0.37888123
   0.25000009 -0.00000000  0.62109653
  -0.00000925  0.12500546  0.54038111
   0.25000008  0.00000000  0.78264437
   0.00000302  0.12499355  0.70192223
   0.24998514  0.12497900  0.21718881
   0.25000009  0.25000000  0.29817474
  -0.00002373  0.37502440  0.21718438
   0.25000297  0.12501008  0.37888016
   0.25000009  0.25000000  0.45962343
   0.00004363  0.37496023  0.37888123
   0.24999112  0.12500230  0.54037742
   0.25000009  0.25000000  0.62113457
   0.00000939  0.37499456  0.54038111
   0.25002101  0.12497248  0.70192587
   0.25000008  0.25000000  0.78260472
  -0.00000289  0.37500647  0.70192223
   0.25001503  0.37502098  0.21718881
   0.25000009  0.50000000  0.29816366
   0.00002386  0.62497561  0.21718438
   0.24999721  0.37498990  0.37888016
   0.25000009  0.50000000  0.45963873
  -0.00004349  0.62503979  0.37888123
   0.25000906  0.37499768  0.54037742
   0.25000009  0.50000000  0.62109653
  -0.00000925  0.62500546  0.54038111
   0.24997916  0.37502749  0.70192587
   0.25000008  0.50000000  0.78264437
   0.00000302  0.62499355  0.70192223
   0.24998514  0.62497900  0.21718881
   0.25000009  0.75000000  0.29817474
  -0.00002373  0.87502440  0.21718438
   0.25000297  0.62501008  0.37888016
   0.25000009  0.75000000  0.45962343
   0.00004363  0.87496023  0.37888123
   0.24999112  0.62500230  0.54037742
   0.25000009  0.75000000  0.62113457
   0.00000939  0.87499456  0.54038111
   0.25002101  0.62497248  0.70192587
   0.25000008  0.75000000  0.78260472
  -0.00000289  0.87500647  0.70192223
   0.25001503  0.87502098  0.21718881
   0.24999721  0.87498990  0.37888016
   0.25000906  0.87499768  0.54037742
   0.24997916  0.87502750  0.70192587
   0.75000009 -0.00000000  0.29816366
   0.50002386  0.12497561  0.21718438
   0.75000009 -0.00000000  0.45963873
   0.49995651  0.12503979  0.37888123
   0.75000009 -0.00000000  0.62109653
   0.49999075  0.12500546  0.54038111
   0.75000008  0.00000000  0.78264437
   0.50000302  0.12499355  0.70192223
   0.74998514  0.12497900  0.21718881
   0.75000009  0.25000000  0.29817474
   0.49997627  0.37502440  0.21718438
   0.75000297  0.12501008  0.37888016
   0.75000009  0.25000000  0.45962343
   0.50004363  0.37496023  0.37888123
   0.74999112  0.12500230  0.54037742
   0.75000009  0.25000000  0.62113457
   0.50000939  0.37499456  0.54038111
   0.75002101  0.12497248  0.70192587
   0.75000008  0.25000000  0.78260472
   0.49999711  0.37500647  0.70192223
   0.75001503  0.37502098  0.21718881
   0.75000009  0.50000000  0.29816366
   0.50002386  0.62497561  0.21718438
   0.74999721  0.37498990  0.37888016
   0.75000009  0.50000000  0.45963873
   0.49995651  0.62503979  0.37888123
   0.75000906  0.37499768  0.54037742
   0.75000009  0.50000000  0.62109653
   0.49999075  0.62500546  0.54038111
   0.74997916  0.37502750  0.70192587
   0.75000008  0.50000000  0.78264437
   0.50000302  0.62499355  0.70192223
   0.74998514  0.62497900  0.21718881
   0.75000009  0.75000000  0.29817474
   0.49997627  0.87502440  0.21718438
   0.75000297  0.62501008  0.37888016
   0.75000009  0.75000000  0.45962343
   0.50004363  0.87496023  0.37888123
   0.74999112  0.62500230  0.54037742
   0.75000009  0.75000000  0.62113457
   0.50000939  0.87499456  0.54038111
   0.75002101  0.62497248  0.70192587
   0.75000008  0.75000000  0.78260472
   0.49999711  0.87500647  0.70192223
   0.75001503  0.87502098  0.21718881
   0.74999721  0.87498990  0.37888016
   0.75000906  0.87499768  0.54037742
   0.74997916  0.87502750  0.70192587
   0.25000008 -0.00000000  0.21756831
   0.25000007 -0.00000000  0.37889966
   0.25000007  0.00000000  0.54037188
   0.25000007  0.00000000  0.70204412
   0.25000008  0.25000000  0.21757090
   0.25000007  0.25000000  0.37890034
   0.25000007  0.25000000  0.54037113
   0.25000007  0.25000000  0.70204539
   0.25000007  0.50000000  0.21756831
   0.25000007  0.50000000  0.37889966
   0.25000007  0.50000000  0.54037188
   0.25000007  0.50000000  0.70204412
   0.25000008  0.75000000  0.21757090
   0.25000007  0.75000000  0.37890034
   0.25000007  0.75000000  0.54037113
   0.25000007  0.75000000  0.70204539
   0.75000008 -0.00000000  0.21756831
   0.75000007 -0.00000000  0.37889966
   0.75000007  0.00000000  0.54037188
   0.75000007  0.00000000  0.70204412
   0.75000008  0.25000000  0.21757090
   0.75000007  0.25000000  0.37890034
   0.75000007  0.25000000  0.54037113
   0.75000007  0.25000000  0.70204539
   0.75000007  0.50000000  0.21756831
   0.75000007  0.50000000  0.37889966
   0.75000007  0.50000000  0.54037188
   0.75000007  0.50000000  0.70204412
   0.75000008  0.75000000  0.21757090
   0.75000007  0.75000000  0.37890034
   0.75000007  0.75000000  0.54037113
   0.75000007  0.75000000  0.70204539
   0.00000005 -0.00000000  0.29806151
   0.00000005  0.00000000  0.45962093
   0.00000005  0.00000000  0.62109849
   0.00000004  0.00000000  0.78255835
   0.00000005  0.25000000  0.29805776
   0.00000005  0.25000000  0.45962005
   0.00000005  0.25000000  0.62110440
   0.00000004  0.25000000  0.78255486
   0.00000005  0.50000000  0.29806151
   0.00000005  0.50000000  0.45962093
   0.00000005  0.50000000  0.62109849
   0.00000004  0.50000000  0.78255836
   0.00000005  0.75000000  0.29805776
   0.00000005  0.75000000  0.45962005
   0.00000005  0.75000000  0.62110440
   0.00000004  0.75000001  0.78255486
   0.50000005 -0.00000000  0.29806151
   0.50000005 -0.00000000  0.45962093
   0.50000004  0.00000000  0.62109849
   0.50000004  0.00000000  0.78255835
   0.50000005  0.25000000  0.29805777
   0.50000005  0.25000000  0.45962005
   0.50000005  0.25000000  0.62110440
   0.50000004  0.25000000  0.78255486
   0.50000004  0.50000000  0.29806151
   0.50000005  0.50000000  0.45962093
   0.50000004  0.50000000  0.62109849
   0.50000004  0.50000000  0.78255835
   0.50000005  0.75000000  0.29805777
   0.50000005  0.75000000  0.45962005
   0.50000004  0.75000000  0.62110440
   0.50000004  0.75000000  0.78255486
Direct configuration=     3
   0.25000009 -0.00000000  0.29825148
   0.00008991  0.12490791  0.21662832
   0.25000009 -0.00000000  0.45967296
  -0.00016430  0.12515014  0.37888685
   0.25000009 -0.00000000  0.62102923
  -0.00003507  0.12502055  0.54040193
   0.25000008  0.00000000  0.78272532
   0.00001126  0.12497559  0.70207269
   0.24994368  0.12492077  0.21664501
   0.25000009  0.25000000  0.29829331
  -0.00008970  0.37509206  0.21662832
   0.25001096  0.12503809  0.37888281
   0.25000009  0.25000000  0.45961523
   0.00016452  0.37484983  0.37888685
   0.24996624  0.12500874  0.54038799
   0.25000009  0.25000000  0.62117279
   0.00003529  0.37497943  0.54040193
   0.25007907  0.12489619  0.70208641
   0.25000008  0.25000000  0.78257567
  -0.00001103  0.37502438  0.70207269
   0.25005650  0.37507924  0.21664501
   0.25000009  0.50000000  0.29825148
   0.00008992  0.62490791  0.21662832
   0.24998922  0.37496193  0.37888281
   0.25000009  0.50000000  0.45967297
  -0.00016430  0.62515014  0.37888685
   0.25003394  0.37499129  0.54038799
   0.25000009  0.50000000  0.62102923
  -0.00003506  0.62502055  0.54040193
   0.24992111  0.37510383  0.70208641
   0.25000008  0.50000000  0.78272532
   0.00001126  0.62497560  0.70207269
   0.24994368  0.62492077  0.21664501
   0.25000009  0.75000000  0.29829331
  -0.00008970  0.87509207  0.21662832
   0.25001096  0.62503809  0.37888281
   0.25000009  0.75000000  0.45961523
   0.00016452  0.87484984  0.37888685
   0.24996624  0.62500873  0.54038799
   0.25000009  0.75000000  0.62117279
   0.00003529  0.87497943  0.54040193
   0.25007908  0.62489619  0.70208641
   0.25000008  0.75000000  0.78257567
  -0.00001103  0.87502438  0.70207269
   0.25005650  0.87507924  0.21664501
   0.24998922  0.87496193  0.37888281
   0.25003394  0.87499128  0.54038799
   0.24992111  0.87510383  0.70208641
   0.75000009 -0.00000000  0.29825148
   0.50008992  0.12490791  0.21662832
   0.75000009 -0.00000000  0.45967296
   0.49983570  0.12515014  0.37888685
   0.75000009 -0.00000000  0.62102923
   0.49996493  0.12502055  0.54040193
   0.75000008  0.00000000  0.78272532
   0.50001126  0.12497560  0.70207269
   0.74994368  0.12492077  0.21664501
   0.75000009  0.25000000  0.29829331
   0.49991031  0.37509206  0.21662832
   0.75001096  0.12503809  0.37888281
   0.75000009  0.25000000  0.45961522
   0.50016452  0.37484983  0.37888685
   0.74996624  0.12500873  0.54038799
   0.75000009  0.25000000  0.62117278
   0.50003529  0.37497943  0.54040193
   0.75007908  0.12489619  0.70208641
   0.75000008  0.25000000  0.78257567
   0.49998896  0.37502438  0.70207269
   0.75005650  0.37507924  0.21664501
   0.75000009  0.50000000  0.29825148
   0.50008993  0.62490791  0.21662832
   0.74998922  0.37496193  0.37888281
   0.75000009  0.50000000  0.45967296
   0.49983570  0.62515014  0.37888685
   0.75003394  0.37499129  0.54038799
   0.75000009  0.50000000  0.62102923
   0.49996493  0.62502055  0.54040193
   0.74992111  0.37510383  0.70208641
   0.75000008  0.50000000  0.78272532
   0.50001126  0.62497560  0.70207269
   0.74994368  0.62492077  0.21664501
   0.75000009  0.75000000  0.29829331
   0.49991031  0.87509206  0.21662832
   0.75001096  0.62503809  0.37888281
   0.75000009  0.75000000  0.45961523
   0.50016453  0.87484983  0.37888685
   0.74996623  0.62500873  0.54038799
   0.75000009  0.75000000  0.62117279
   0.50003529  0.87497942  0.54040193
   0.75007907  0.62489619  0.70208641
   0.75000008  0.75000000  0.78257567
   0.49998897  0.87502438  0.70207269
   0.75005650  0.87507924  0.21664501
   0.74998922  0.87496193  0.37888281
   0.75003394  0.87499129  0.54038799
   0.74992111  0.87510383  0.70208641
   0.25000005 -0.00000001  0.21807739
   0.25000004 -0.00000000  0.37895639
   0.25000003  0.00000001  0.54036708
   0.25000002  0.00000001  0.70253277
   0.25000005  0.24999999  0.21808717
   0.25000004  0.25000000  0.37895896
   0.25000003  0.25000001  0.54036425
   0.25000003  0.25000001  0.70253754
   0.25000005  0.49999999  0.21807739
   0.25000004  0.50000000  0.37895639
   0.25000004  0.50000001  0.54036708
   0.25000002  0.50000001  0.70253277
   0.25000005  0.74999999  0.21808717
   0.25000004  0.75000000  0.37895896
   0.25000003  0.75000001  0.54036425
   0.25000002  0.75000001  0.70253754
   0.75000005 -0.00000001  0.21807739
   0.75000004 -0.00000000  0.37895639
   0.75000003  0.00000001  0.54036708
   0.75000002  0.00000001  0.70253276
   0.75000005  0.24999999  0.21808717
   0.75000004  0.25000000  0.37895896
   0.75000003  0.25000001  0.54036425
   0.75000003  0.25000001  0.70253754
   0.75000005  0.49999999  0.21807739
   0.75000004  0.50000000  0.37895639
   0.75000004  0.50000001  0.54036708
   0.75000003  0.50000001  0.70253276
   0.75000005  0.74999999  0.21808717
   0.75000004  0.75000000  0.37895896
   0.75000003  0.75000001  0.54036425
   0.75000003  0.75000001  0.70253754
   0.00000003 -0.00000000  0.29786594
   0.00000003  0.00000000  0.45960578
   0.00000003  0.00000000  0.62103663
   0.00000001  0.00000002  0.78240066
   0.00000004  0.24999999  0.29785180
   0.00000004  0.25000000  0.45960246
   0.00000003  0.25000000  0.62105894
   0.00000003  0.25000001  0.78238749
   0.00000003  0.50000000  0.29786594
   0.00000003  0.50000000  0.45960578
   0.00000004  0.50000000  0.62103663
   0.00000001  0.50000002  0.78240068
   0.00000004  0.74999999  0.29785180
   0.00000003  0.75000000  0.45960246
   0.00000004  0.75000000  0.62105894
  -0.00000000  0.75000002  0.78238749
   0.50000003 -0.00000000  0.29786594
   0.50000004 -0.00000000  0.45960579
   0.50000003  0.00000001  0.62103664
   0.50000002  0.00000002  0.78240066
   0.50000004  0.25000000  0.29785181
   0.50000004  0.25000000  0.45960246
   0.50000003  0.25000000  0.62105894
   0.50000001  0.25000001  0.78238748
   0.50000003  0.50000000  0.29786594
   0.50000004  0.50000000  0.45960578
   0.50000003  0.50000001  0.62103663
   0.50000002  0.50000001  0.78240065
   0.50000003  0.75000000  0.29785181
   0.50000003  0.75000000  0.45960246
   0.50000002  0.75000001  0.62105894
   0.50000002  0.75000001  0.78238749
Direct configuration=     4
   0.25000010 -0.00000001  0.29839622
   0.00000157  0.12495509  0.21642393
   0.25000009 -0.00000000  0.45969635
  -0.00006199  0.12511949  0.37888685
   0.25000009  0.00000000  0.62116037
  -0.00004954  0.12502652  0.54040902
   0.25000008  0.00000000  0.78289946
  -0.00003117  0.12500416  0.70222412
   0.24990947  0.12497936  0.21644395
   0.25000010  0.24999999  0.29837863
  -0.00000135  0.37504488  0.21642393
   0.25003715  0.12499701  0.37888839
   0.25000009  0.25000000  0.45963442
   0.00006221  0.37488050  0.37888685
   0.24995477  0.12501973  0.54039036
   0.25000009  0.25000000  0.62129027
   0.00004974  0.37497347  0.54040902
   0.25006742  0.12489919  0.70224159
   0.25000008  0.25000000  0.78270648
   0.00003138  0.37499582  0.70222412
   0.25009071  0.37502065  0.21644395
   0.25000010  0.49999999  0.29839622
   0.00000157  0.62495509  0.21642393
   0.24996304  0.37500300  0.37888839
   0.25000010  0.50000000  0.45969635
  -0.00006199  0.62511949  0.37888685
   0.25004541  0.37498029  0.54039037
   0.25000009  0.50000000  0.62116037
  -0.00004954  0.62502652  0.54040902
   0.24993277  0.37510082  0.70224159
   0.25000008  0.50000000  0.78289946
  -0.00003117  0.62500417  0.70222412
   0.24990947  0.62497936  0.21644395
   0.25000010  0.74999999  0.29837863
  -0.00000135  0.87504488  0.21642393
   0.25003715  0.62499701  0.37888839
   0.25000009  0.75000000  0.45963442
   0.00006221  0.87488050  0.37888685
   0.24995477  0.62501973  0.54039036
   0.25000009  0.75000000  0.62129027
   0.00004974  0.87497347  0.54040902
   0.25006742  0.62489919  0.70224159
   0.25000008  0.75000000  0.78270648
   0.00003138  0.87499582  0.70222412
   0.25009071  0.87502065  0.21644395
   0.24996304  0.87500300  0.37888839
   0.25004541  0.87498029  0.54039037
   0.24993277  0.87510082  0.70224159
   0.75000010 -0.00000001  0.29839622
   0.50000157  0.12495509  0.21642393
   0.75000009 -0.00000000  0.45969635
   0.49993801  0.12511949  0.37888685
   0.75000009  0.00000000  0.62116037
   0.49995046  0.12502652  0.54040902
   0.75000008  0.00000000  0.78289946
   0.49996883  0.12500416  0.70222412
   0.74990947  0.12497935  0.21644395
   0.75000010  0.24999999  0.29837863
   0.49999865  0.37504488  0.21642393
   0.75003715  0.12499701  0.37888839
   0.75000009  0.25000000  0.45963441
   0.50006221  0.37488050  0.37888685
   0.74995477  0.12501973  0.54039036
   0.75000009  0.25000000  0.62129027
   0.50004974  0.37497347  0.54040902
   0.75006742  0.12489919  0.70224159
   0.75000008  0.25000000  0.78270648
   0.50003137  0.37499582  0.70222412
   0.75009071  0.37502065  0.21644395
   0.75000010  0.49999999  0.29839622
   0.50000158  0.62495509  0.21642393
   0.74996304  0.37500300  0.37888839
   0.75000009  0.50000000  0.45969635
   0.49993801  0.62511948  0.37888685
   0.75004541  0.37498029  0.54039037
   0.75000009  0.50000000  0.62116037
   0.49995046  0.62502652  0.54040902
   0.74993277  0.37510082  0.70224159
   0.75000008  0.50000000  0.78289946
   0.49996882  0.62500417  0.70222412
   0.74990947  0.62497936  0.21644395
   0.75000010  0.74999999  0.29837863
   0.49999866  0.87504488  0.21642393
   0.75003715  0.62499701  0.37888839
   0.75000009  0.75000000  0.45963442
   0.50006221  0.87488049  0.37888685
   0.74995477  0.62501973  0.54039036
   0.75000009  0.75000000  0.62129028
   0.50004974  0.87497347  0.54040902
   0.75006742  0.62489919  0.70224159
   0.75000008  0.75000000  0.78270648
   0.50003138  0.87499582  0.70222412
   0.75009071  0.87502065  0.21644395
   0.74996304  0.87500300  0.37888839
   0.75004541  0.87498029  0.54039037
   0.74993277  0.87510082  0.70224159
   0.25000006 -0.00000001  0.21799744
   0.25000005 -0.00000000  0.37899417
   0.25000005  0.00000001  0.54036663
   0.25000004  0.00000001  0.70253043
   0.25000006  0.24999999  0.21800827
   0.25000006  0.25000000  0.37899612
   0.25000005  0.25000001  0.54037751
   0.25000004  0.25000001  0.70252735
   0.25000006  0.49999999  0.21799744
   0.25000006  0.50000000  0.37899417
   0.25000005  0.50000001  0.54036663
   0.25000004  0.50000001  0.70253043
   0.25000006  0.74999999  0.21800826
   0.25000006  0.75000000  0.37899612
   0.25000005  0.75000001  0.54037751
   0.25000004  0.75000001  0.70252735
   0.75000007 -0.00000001  0.21799744
   0.75000005 -0.00000000  0.37899417
   0.75000005  0.00000001  0.54036663
   0.75000004  0.00000001  0.70253042
   0.75000006  0.24999999  0.21800826
   0.75000006  0.25000000  0.37899612
   0.75000005  0.25000001  0.54037751
   0.75000004  0.25000001  0.70252735
   0.75000006  0.49999999  0.21799744
   0.75000005  0.50000000  0.37899417
   0.75000005  0.50000001  0.54036663
   0.75000004  0.50000001  0.70253042
   0.75000006  0.74999999  0.21800826
   0.75000006  0.75000000  0.37899612
   0.75000005  0.75000001  0.54037751
   0.75000004  0.75000001  0.70252735
   0.00000002 -0.00000001  0.29771843
   0.00000002  0.00000000  0.45960140
   0.00000002  0.00000001  0.62100326
  -0.00000001  0.00000002  0.78230384
   0.00000003  0.24999999  0.29770004
   0.00000002  0.25000000  0.45959495
   0.00000002  0.25000000  0.62103042
   0.00000001  0.25000002  0.78228236
   0.00000002  0.50000000  0.29771843
   0.00000002  0.50000000  0.45960140
   0.00000002  0.50000000  0.62100326
  -0.00000001  0.50000002  0.78230387
   0.00000002  0.74999999  0.29770004
   0.00000002  0.75000000  0.45959495
   0.00000002  0.75000000  0.62103042
  -0.00000003  0.75000003  0.78228236
   0.50000002 -0.00000000  0.29771843
   0.50000002 -0.00000000  0.45960140
   0.50000001  0.00000001  0.62100326
   0.50000000  0.00000002  0.78230384
   0.50000002  0.25000000  0.29770005
   0.50000002  0.25000000  0.45959495
   0.50000002  0.25000000  0.62103042
   0.49999999  0.25000002  0.78228235
   0.50000002  0.50000000  0.29771843
   0.50000003  0.50000000  0.45960140
   0.50000001  0.50000001  0.62100326
   0.49999999  0.50000002  0.78230384
   0.50000002  0.75000000  0.29770005
   0.50000002  0.75000000  0.45959495
   0.50000001  0.75000001  0.62103042
   0.50000000  0.75000002  0.78228236
Direct configuration=     5
   0.25000012 -0.00000002  0.29871170
  -0.00019101  0.12505793  0.21597842
   0.25000010 -0.00000000  0.45974731
   0.00016102  0.12505266  0.37888687
   0.25000009  0.00000000  0.62144623
  -0.00008108  0.12503951  0.54042448
   0.25000008  0.00000001  0.78327903
  -0.00012366  0.12506644  0.70255419
   0.24983492  0.12510705  0.21600569
   0.25000012  0.24999998  0.29856461
   0.00019123  0.37494204  0.21597842
   0.25009424  0.12490746  0.37890057
   0.25000010  0.25000000  0.45967624
  -0.00016082  0.37494733  0.37888687
   0.24992978  0.12504369  0.54039553
   0.25000010  0.25000000  0.62154637
   0.00008125  0.37496050  0.54042448
   0.25004201  0.12490573  0.70257984
   0.25000007  0.25000001  0.78299161
   0.00012382  0.37493357  0.70255419
   0.25016528  0.37489293  0.21600569
   0.25000012  0.49999998  0.29871171
  -0.00019101  0.62505793  0.21597842
   0.24990596  0.37509253  0.37890057
   0.25000010  0.50000000  0.45974731
   0.00016102  0.62505266  0.37888687
   0.25007041  0.37495632  0.54039553
   0.25000009  0.50000000  0.62144623
  -0.00008108  0.62503952  0.54042447
   0.24995820  0.37509426  0.70257983
   0.25000008  0.50000000  0.78327904
  -0.00012366  0.62506644  0.70255419
   0.24983492  0.62510705  0.21600569
   0.25000012  0.74999998  0.29856461
   0.00019123  0.87494204  0.21597842
   0.25009424  0.62490746  0.37890057
   0.25000010  0.75000000  0.45967624
  -0.00016082  0.87494733  0.37888687
   0.24992978  0.62504369  0.54039553
   0.25000010  0.75000000  0.62154637
   0.00008125  0.87496050  0.54042448
   0.25004201  0.62490573  0.70257984
   0.25000007  0.75000001  0.78299161
   0.00012381  0.87493358  0.70255419
   0.25016528  0.87489293  0.21600569
   0.24990596  0.87509252  0.37890057
   0.25007041  0.87495632  0.54039553
   0.24995819  0.87509427  0.70257983
   0.75000012 -0.00000002  0.29871170
   0.49980900  0.12505793  0.21597842
   0.75000010 -0.00000000  0.45974731
   0.50016102  0.12505266  0.37888687
   0.75000009  0.00000000  0.62144623
   0.49991892  0.12503951  0.54042448
   0.75000008  0.00000000  0.78327903
   0.49987634  0.12506644  0.70255419
   0.74983492  0.12510705  0.21600569
   0.75000012  0.24999998  0.29856461
   0.50019123  0.37494204  0.21597842
   0.75009424  0.12490746  0.37890057
   0.75000010  0.25000000  0.45967625
   0.49983918  0.37494733  0.37888687
   0.74992978  0.12504369  0.54039553
   0.75000010  0.25000000  0.62154637
   0.50008126  0.37496049  0.54042448
   0.75004201  0.12490573  0.70257984
   0.75000007  0.25000001  0.78299161
   0.50012381  0.37493358  0.70255419
   0.75016528  0.37489293  0.21600569
   0.75000012  0.49999998  0.29871170
   0.49980900  0.62505793  0.21597842
   0.74990596  0.37509253  0.37890057
   0.75000010  0.50000000  0.45974731
   0.50016102  0.62505266  0.37888687
   0.75007041  0.37495632  0.54039553
   0.75000009  0.50000000  0.62144623
   0.49991892  0.62503952  0.54042448
   0.74995819  0.37509426  0.70257983
   0.75000008  0.50000000  0.78327904
   0.49987633  0.62506644  0.70255419
   0.74983492  0.62510705  0.21600569
   0.75000012  0.74999998  0.29856461
   0.50019123  0.87494204  0.21597842
   0.75009424  0.62490746  0.37890057
   0.75000010  0.75000000  0.45967625
   0.49983918  0.87494733  0.37888687
   0.74992978  0.62504369  0.54039553
   0.75000010  0.75000000  0.62154637
   0.50008126  0.87496050  0.54042448
   0.75004201  0.62490573  0.70257984
   0.75000007  0.75000001  0.78299161
   0.50012382  0.87493358  0.70255419
   0.75016528  0.87489293  0.21600569
   0.74990596  0.87509252  0.37890057
   0.75007041  0.87495632  0.54039553
   0.74995819  0.87509427  0.70257983
   0.25000010 -0.00000001  0.21782317
   0.25000009 -0.00000000  0.37907654
   0.25000008  0.00000001  0.54036565
   0.25000008  0.00000001  0.70252533
   0.25000009  0.24999999  0.21783626
   0.25000009  0.24999999  0.37907711
   0.25000008  0.25000001  0.54040641
   0.25000007  0.25000001  0.70250514
   0.25000010  0.49999998  0.21782318
   0.25000009  0.50000000  0.37907654
   0.25000008  0.50000001  0.54036565
   0.25000007  0.50000001  0.70252532
   0.25000009  0.74999999  0.21783626
   0.25000009  0.75000000  0.37907711
   0.25000008  0.75000001  0.54040641
   0.25000008  0.75000001  0.70250514
   0.75000009 -0.00000001  0.21782318
   0.75000009 -0.00000001  0.37907655
   0.75000008  0.00000001  0.54036565
   0.75000008  0.00000001  0.70252532
   0.75000009  0.24999999  0.21783626
   0.75000009  0.25000000  0.37907711
   0.75000008  0.25000001  0.54040641
   0.75000008  0.25000001  0.70250514
   0.75000010  0.49999999  0.21782318
   0.75000009  0.49999999  0.37907654
   0.75000008  0.50000001  0.54036566
   0.75000008  0.50000001  0.70252532
   0.75000009  0.74999999  0.21783626
   0.75000009  0.75000000  0.37907711
   0.75000008  0.75000001  0.54040641
   0.75000008  0.75000000  0.70250514
  -0.00000000 -0.00000001  0.29739690
  -0.00000001 -0.00000000  0.45959183
  -0.00000002  0.00000001  0.62093050
  -0.00000006  0.00000004  0.78209281
  -0.00000000  0.24999999  0.29736925
  -0.00000000  0.25000000  0.45957858
  -0.00000002  0.25000001  0.62096825
  -0.00000004  0.25000004  0.78205321
  -0.00000000  0.49999999  0.29739690
  -0.00000001  0.50000000  0.45959183
  -0.00000001  0.50000000  0.62093051
  -0.00000006  0.50000004  0.78209284