   5   5   0   0
  0.1817644E+02  0.4496000E-09  0.4496000E-09  0.4496000E-09  0.5000000E-15
  1.000000000000000E-004
  CAR 
 unknown system                          
     14.69857012    -14.81587430  301      1.81367048      1.00000000
    -14.816  0.0000E+00  0.0000E+00
    -14.717  0.0000E+00  0.0000E+00
    -14.619  0.0000E+00  0.0000E+00
    -14.521  0.0000E+00  0.0000E+00
    -14.422  0.0000E+00  0.0000E+00
    -14.324  0.0000E+00  0.0000E+00
    -14.226  0.0000E+00  0.0000E+00
    -14.127  0.0000E+00  0.0000E+00
    -14.029  0.2090E-17  0.2056E-18
    -13.930  0.5245E-13  0.5160E-14
    -13.832  0.1990E-09  0.1958E-10
    -13.734  0.1182E-06  0.1164E-07
    -13.635  0.1225E-04  0.1217E-05
    -13.537  0.3088E-03  0.3159E-04
    -13.439  0.2990E-02  0.3257E-03
    -13.340  0.1035E-01  0.1344E-02
    -13.242  0.9698E-02  0.2298E-02
    -13.143  0.4251E-02  0.2716E-02
    -13.045  0.1055E-01  0.3754E-02
    -12.947  0.1039E-01  0.4777E-02
    -12.848  0.2177E-02  0.4991E-02
    -12.750  0.9088E-04  0.5000E-02
    -12.651  0.6962E-06  0.5000E-02
    -12.553  0.9059E-09  0.5000E-02
    -12.455  0.1890E-12  0.5000E-02
    -12.356  0.5851E-17  0.5000E-02
    -12.258  0.0000E+00  0.5000E-02
    -12.160  0.0000E+00  0.5000E-02
    -12.061  0.0000E+00  0.5000E-02
    -11.963  0.0000E+00  0.5000E-02
    -11.864  0.0000E+00  0.5000E-02
    -11.766  0.0000E+00  0.5000E-02
    -11.668  0.0000E+00  0.5000E-02
    -11.569  0.0000E+00  0.5000E-02
    -11.471  0.0000E+00  0.5000E-02
    -11.373  0.0000E+00  0.5000E-02
    -11.274  0.0000E+00  0.5000E-02
    -11.176  0.0000E+00  0.5000E-02
    -11.077  0.0000E+00  0.5000E-02
    -10.979  0.0000E+00  0.5000E-02
    -10.881  0.0000E+00  0.5000E-02
    -10.782  0.0000E+00  0.5000E-02
    -10.684  0.0000E+00  0.5000E-02
    -10.585  0.0000E+00  0.5000E-02
    -10.487  0.0000E+00  0.5000E-02
    -10.389  0.0000E+00  0.5000E-02
    -10.290  0.0000E+00  0.5000E-02
    -10.192  0.0000E+00  0.5000E-02
    -10.094  0.0000E+00  0.5000E-02
     -9.995  0.0000E+00  0.5000E-02
     -9.897  0.0000E+00  0.5000E-02
     -9.798  0.0000E+00  0.5000E-02
     -9.700  0.0000E+00  0.5000E-02
     -9.602  0.0000E+00  0.5000E-02
     -9.503  0.0000E+00  0.5000E-02
     -9.405  0.0000E+00  0.5000E-02
     -9.307  0.0000E+00  0.5000E-02
     -9.208  0.0000E+00  0.5000E-02
     -9.110  0.0000E+00  0.5000E-02
     -9.011  0.0000E+00  0.5000E-02
     -8.913  0.0000E+00  0.5000E-02
     -8.815  0.0000E+00  0.5000E-02
     -8.716  0.0000E+00  0.5000E-02
     -8.618  0.0000E+00  0.5000E-02
     -8.519  0.0000E+00  0.5000E-02
     -8.421  0.0000E+00  0.5000E-02
     -8.323  0.0000E+00  0.5000E-02
     -8.224  0.0000E+00  0.5000E-02
     -8.126  0.0000E+00  0.5000E-02
     -8.028  0.0000E+00  0.5000E-02
     -7.929  0.0000E+00  0.5000E-02
     -7.831  0.0000E+00  0.5000E-02
     -7.732  0.0000E+00  0.5000E-02
     -7.634  0.0000E+00  0.5000E-02
     -7.536  0.0000E+00  0.5000E-02
     -7.437  0.0000E+00  0.5000E-02
     -7.339  0.0000E+00  0.5000E-02
     -7.241  0.0000E+00  0.5000E-02
     -7.142  0.0000E+00  0.5000E-02
     -7.044  0.0000E+00  0.5000E-02
     -6.945  0.0000E+00  0.5000E-02
     -6.847  0.0000E+00  0.5000E-02
     -6.749  0.0000E+00  0.5000E-02
     -6.650  0.0000E+00  0.5000E-02
     -6.552  0.0000E+00  0.5000E-02
     -6.453  0.0000E+00  0.5000E-02
     -6.355  0.0000E+00  0.5000E-02
     -6.257  0.0000E+00  0.5000E-02
     -6.158  0.0000E+00  0.5000E-02
     -6.060  0.0000E+00  0.5000E-02
     -5.962  0.0000E+00  0.5000E-02
     -5.863  0.0000E+00  0.5000E-02
     -5.765  0.0000E+00  0.5000E-02
     -5.666  0.0000E+00  0.5000E-02
     -5.568  0.0000E+00  0.5000E-02
     -5.470  0.0000E+00  0.5000E-02
     -5.371  0.0000E+00  0.5000E-02
     -5.273  0.0000E+00  0.5000E-02
     -5.174  0.0000E+00  0.5000E-02
     -5.076  0.0000E+00  0.5000E-02
     -4.978  0.0000E+00  0.5000E-02
     -4.879  0.0000E+00  0.5000E-02
     -4.781  0.0000E+00  0.5000E-02
     -4.683  0.0000E+00  0.5000E-02
     -4.584  0.0000E+00  0.5000E-02
     -4.486  0.0000E+00  0.5000E-02
     -4.387  0.0000E+00  0.5000E-02
     -4.289  0.0000E+00  0.5000E-02
     -4.191  0.0000E+00  0.5000E-02
     -4.092  0.0000E+00  0.5000E-02
     -3.994  0.0000E+00  0.5000E-02
     -3.896  0.0000E+00  0.5000E-02
     -3.797  0.0000E+00  0.5000E-02
     -3.699  0.0000E+00  0.5000E-02
     -3.600  0.0000E+00  0.5000E-02
     -3.502  0.0000E+00  0.5000E-02
     -3.404  0.0000E+00  0.5000E-02
     -3.305  0.0000E+00  0.5000E-02
     -3.207  0.0000E+00  0.5000E-02
     -3.108  0.0000E+00  0.5000E-02
     -3.010  0.0000E+00  0.5000E-02
     -2.912  0.0000E+00  0.5000E-02
     -2.813  0.0000E+00  0.5000E-02
     -2.715  0.0000E+00  0.5000E-02
     -2.617  0.5058E-14  0.5000E-02
     -2.518  0.5600E-10  0.5000E-02
     -2.420  0.9540E-07  0.5000E-02
     -2.321  0.2585E-04  0.5003E-02
     -2.223  0.1180E-02  0.5119E-02
     -2.125  0.1005E-01  0.6108E-02
     -2.026  0.1955E-01  0.8031E-02
     -1.928  0.1420E-01  0.9428E-02
     -1.830  0.5255E-02  0.9945E-02
     -1.731  0.8139E-03  0.1003E-01
     -1.633  0.3119E-02  0.1033E-01
     -1.534  0.1056E-01  0.1137E-01
     -1.436  0.9438E-02  0.1230E-01
     -1.338  0.1954E-02  0.1249E-01
     -1.239  0.8223E-04  0.1250E-01
     -1.141  0.6229E-06  0.1250E-01
     -1.042  0.7770E-09  0.1250E-01
     -0.944  0.1513E-12  0.1250E-01
     -0.846  0.5016E-17  0.1250E-01
     -0.747  0.0000E+00  0.1250E-01
     -0.649  0.0000E+00  0.1250E-01
     -0.551  0.0000E+00  0.1250E-01
     -0.452  0.0000E+00  0.1250E-01
     -0.354  0.0000E+00  0.1250E-01
     -0.255  0.0000E+00  0.1250E-01
     -0.157  0.0000E+00  0.1250E-01
     -0.059  0.0000E+00  0.1250E-01
      0.040  0.0000E+00  0.1250E-01
      0.138  0.0000E+00  0.1250E-01
      0.236  0.2432E-14  0.1250E-01
      0.335  0.2379E-10  0.1250E-01
      0.433  0.3532E-07  0.1250E-01
      0.532  0.8183E-05  0.1250E-01
      0.630  0.3113E-03  0.1253E-01
      0.728  0.2203E-02  0.1275E-01
      0.827  0.5623E-02  0.1330E-01
      0.925  0.1402E-01  0.1468E-01
      1.024  0.1497E-01  0.1615E-01
      1.122  0.9674E-02  0.1711E-01
      1.220  0.1007E-01  0.1810E-01
      1.319  0.1280E-01  0.1936E-01
      1.417  0.5734E-02  0.1992E-01
      1.515  0.7861E-03  0.2000E-01
      1.614  0.3443E-04  0.2000E-01
      1.712  0.3371E-06  0.2000E-01
      1.811  0.5641E-09  0.2000E-01
      1.909  0.1469E-12  0.2000E-01
      2.007  0.5642E-17  0.2000E-01
      2.106  0.0000E+00  0.2000E-01
      2.204  0.0000E+00  0.2000E-01
      2.303  0.0000E+00  0.2000E-01
      2.401  0.0000E+00  0.2000E-01
      2.499  0.0000E+00  0.2000E-01
      2.598  0.0000E+00  0.2000E-01
      2.696  0.0000E+00  0.2000E-01
      2.794  0.0000E+00  0.2000E-01
      2.893  0.0000E+00  0.2000E-01
      2.991  0.1437E-16  0.2000E-01
      3.090  0.2579E-12  0.2000E-01
      3.188  0.6981E-09  0.2000E-01
      3.286  0.2918E-06  0.2000E-01
      3.385  0.1961E-04  0.2000E-01
      3.483  0.2260E-03  0.2002E-01
      3.581  0.4825E-03  0.2007E-01
      3.680  0.1976E-03  0.2009E-01
      3.778  0.1491E-04  0.2009E-01
      3.877  0.1918E-06  0.2009E-01
      3.975  0.3950E-09  0.2009E-01
      4.073  0.1253E-12  0.2009E-01
      4.172  0.6060E-17  0.2009E-01
      4.270  0.0000E+00  0.2009E-01
      4.369  0.0000E+00  0.2009E-01
      4.467  0.0000E+00  0.2009E-01
      4.565  0.7555E-16  0.2009E-01
      4.664  0.1387E-11  0.2009E-01
      4.762  0.3843E-08  0.2009E-01
      4.860  0.1643E-05  0.2009E-01
      4.959  0.1129E-03  0.2010E-01
      5.057  0.1330E-02  0.2023E-01
      5.156  0.2897E-02  0.2052E-01
      5.254  0.1211E-02  0.2064E-01
      5.352  0.9335E-04  0.2065E-01
      5.451  0.1228E-05  0.2065E-01
      5.549  0.3379E-06  0.2065E-01
      5.647  0.4878E-04  0.2065E-01
      5.746  0.1181E-02  0.2077E-01
      5.844  0.5130E-02  0.2127E-01
      5.943  0.4250E-02  0.2169E-01
      6.041  0.6652E-03  0.2176E-01
      6.139  0.1835E-04  0.2176E-01
      6.238  0.8302E-07  0.2176E-01
      6.336  0.5865E-10  0.2176E-01
      6.435  0.2005E-12  0.2176E-01
      6.533  0.8699E-09  0.2176E-01
      6.631  0.6069E-06  0.2176E-01
      6.730  0.6815E-04  0.2177E-01
      6.828  0.1304E-02  0.2189E-01
      6.926  0.4699E-02  0.2236E-01
      7.025  0.5180E-02  0.2287E-01
      7.123  0.6141E-02  0.2347E-01
      7.222  0.3328E-02  0.2380E-01
      7.320  0.3347E-02  0.2413E-01
      7.418  0.5714E-02  0.2469E-01
      7.517  0.2076E-02  0.2489E-01
      7.615  0.1404E-03  0.2491E-01
      7.713  0.2680E-05  0.2491E-01
      7.812  0.9246E-04  0.2492E-01
      7.910  0.1389E-02  0.2505E-01
      8.009  0.3826E-02  0.2543E-01
      8.107  0.2101E-02  0.2564E-01
      8.205  0.2344E-02  0.2587E-01
      8.304  0.1076E-01  0.2693E-01
      8.402  0.1098E-01  0.2801E-01
      8.501  0.2479E-02  0.2825E-01
      8.599  0.3423E-02  0.2859E-01
      8.697  0.1211E-01  0.2978E-01
      8.796  0.9240E-02  0.3069E-01
      8.894  0.1449E-02  0.3083E-01
      8.992  0.4301E-04  0.3083E-01
      9.091  0.2203E-06  0.3083E-01
      9.189  0.3870E-08  0.3083E-01
      9.288  0.1911E-05  0.3083E-01
      9.386  0.1583E-03  0.3085E-01
      9.484  0.2231E-02  0.3107E-01
      9.583  0.5910E-02  0.3165E-01
      9.681  0.4951E-02  0.3214E-01
      9.779  0.6017E-02  0.3273E-01
      9.878  0.3618E-02  0.3309E-01
      9.976  0.4350E-02  0.3351E-01
     10.075  0.5276E-02  0.3403E-01
     10.173  0.1309E-02  0.3416E-01
     10.271  0.5855E-04  0.3417E-01
     10.370  0.4371E-06  0.3417E-01
     10.468  0.5151E-09  0.3417E-01
     10.567  0.1252E-10  0.3417E-01
     10.665  0.1826E-07  0.3417E-01
     10.763  0.4190E-05  0.3417E-01
     10.862  0.1574E-03  0.3418E-01
     10.960  0.1041E-02  0.3428E-01
     11.058  0.1338E-02  0.3442E-01
     11.157  0.1419E-02  0.3456E-01
     11.255  0.6126E-02  0.3516E-01
     11.354  0.7672E-02  0.3591E-01
     11.452  0.5036E-02  0.3641E-01
     11.550  0.6384E-02  0.3704E-01
     11.649  0.3199E-02  0.3735E-01
     11.747  0.5359E-03  0.3740E-01
     11.846  0.2906E-04  0.3741E-01
     11.944  0.3361E-06  0.3741E-01
     12.042  0.5143E-08  0.3741E-01
     12.141  0.2211E-05  0.3741E-01
     12.239  0.1743E-03  0.3742E-01
     12.337  0.2343E-02  0.3766E-01
     12.436  0.5920E-02  0.3824E-01
     12.534  0.4416E-02  0.3867E-01
     12.633  0.4106E-02  0.3908E-01
     12.731  0.1719E-02  0.3925E-01
     12.829  0.1407E-03  0.3926E-01
     12.928  0.1975E-05  0.3926E-01
     13.026  0.1525E-07  0.3926E-01
     13.124  0.3780E-05  0.3926E-01
     13.223  0.2138E-03  0.3928E-01
     13.321  0.2090E-02  0.3949E-01
     13.420  0.3807E-02  0.3986E-01
     13.518  0.1329E-02  0.3999E-01
     13.616  0.8493E-04  0.4000E-01
     13.715  0.9186E-06  0.4000E-01
     13.813  0.1583E-08  0.4000E-01
     13.912  0.4192E-12  0.4000E-01
     14.010  0.1672E-16  0.4000E-01
     14.108  0.0000E+00  0.4000E-01
     14.207  0.0000E+00  0.4000E-01
     14.305  0.0000E+00  0.4000E-01
     14.403  0.0000E+00  0.4000E-01
     14.502  0.0000E+00  0.4000E-01
     14.600  0.0000E+00  0.4000E-01
     14.699  0.0000E+00  0.4000E-01
