    5    5  800    1
  0.1817644E+02  0.4496000E-09  0.4496000E-09  0.4496000E-09  0.5000000E-15
  1.000000000000000E-004
  CAR 
 unknown system                          
     16      4     16
 
  0.0000000E+00  0.0000000E+00  0.0000000E+00  0.3703704E-01
    1      -13.474309   1.000000
    2      -13.047981   1.000000
    3       -1.622677   1.000000
    4       -1.622677   1.000000
    5       -1.622677   1.000000
    6        1.353731   1.000000
    7        1.353731   1.000000
    8        1.353731   1.000000
    9        3.528293   0.000000
   10        6.891968   0.000000
   11        6.891968   0.000000
   12       10.973301   0.000000
   13       10.973301   0.000000
   14       10.973301   0.000000
   15       11.592908   0.000000
   16       11.592908   0.000000
 
  0.3333333E+00  0.0000000E+00  0.0000000E+00  0.2222222E+00
    1      -13.389235   1.000000
    2      -13.070457   1.000000
    3       -2.104000   1.000000
    4       -1.556920   1.000000
    5       -1.556920   1.000000
    6        0.742146   1.000000
    7        1.261083   1.000000
    8        1.261083   1.000000
    9        5.103613   0.000000
   10        7.350510   0.000000
   11        7.364686   0.000000
   12        9.991953   0.000000
   13        9.991953   0.000000
   14       11.308034   0.000000
   15       11.493810   0.000000
   16       11.493889   0.000000
 
  0.3333333E+00  0.3333333E+00  0.0000000E+00  0.4444444E+00
    1      -13.343124   1.000000
    2      -13.050278   1.000000
    3       -2.107403   1.000000
    4       -2.089039   1.000000
    5       -1.513762   1.000000
    6        0.922678   1.000000
    7        1.100591   1.000000
    8        1.258984   1.000000
    9        5.832996   0.000000
   10        7.084695   0.000000
   11        8.323829   0.000000
   12        8.658993   0.000000
   13        9.540976   0.000000
   14        9.741342   0.000000
   15       11.250112   0.000000
   16       12.391331   0.000000
 
  0.3333333E+00  0.3333333E+00  0.3333333E+00  0.2962963E+00
    1      -13.313043   1.000000
    2      -13.018473   1.000000
    3       -2.042700   1.000000
    4       -1.956118   1.000000
    5       -1.956118   1.000000
    6        0.903657   1.000000
    7        0.903657   1.000000
    8        0.990613   1.000000
    9        6.905621   0.000000
   10        7.970536   0.000000
   11        8.291122   0.000000
   12        8.291122   0.000000
   13        8.695925   0.000000
   14        8.695925   0.000000
   15       12.584149   0.000000
   16       13.357004   0.000000
