       N       E                     dE             d eps       ncg     rms          rms(c)
DAV:   1     0.804010277543E+02    0.80401E+02   -0.47463E+03   128   0.621E+02
DAV:   2    -0.132204172488E+02   -0.93621E+02   -0.80275E+02   192   0.152E+02
DAV:   3    -0.227615901754E+02   -0.95412E+01   -0.94720E+01   144   0.549E+01
DAV:   4    -0.229353102777E+02   -0.17372E+00   -0.17356E+00   176   0.871E+00
DAV:   5    -0.229396009290E+02   -0.42907E-02   -0.42901E-02   160   0.131E+00    0.105E+01
RMM:   6    -0.184752286881E+02    0.44644E+01   -0.10691E+01   128   0.145E+01    0.461E+00
RMM:   7    -0.182989862810E+02    0.17624E+00   -0.62723E-01   128   0.389E+00    0.249E+00
RMM:   8    -0.181661004758E+02    0.13289E+00   -0.44896E-01   129   0.443E+00    0.404E-01
RMM:   9    -0.181707671021E+02   -0.46666E-02   -0.25658E-02   128   0.112E+00    0.293E-01
RMM:  10    -0.181749792781E+02   -0.42122E-02   -0.12947E-02   128   0.567E-01    0.246E-01
RMM:  11    -0.181737769434E+02    0.12023E-02   -0.24248E-03   128   0.285E-01    0.545E-02
RMM:  12    -0.181738436919E+02   -0.66748E-04   -0.11196E-03   128   0.203E-01    0.274E-02
RMM:  13    -0.181738546586E+02   -0.10967E-04   -0.12806E-04   129   0.744E-02    0.287E-02
RMM:  14    -0.181738465850E+02    0.80737E-05   -0.59673E-05   135   0.393E-02    0.113E-02
RMM:  15    -0.181738454001E+02    0.11849E-05   -0.10925E-05   129   0.178E-02    0.138E-03
RMM:  16    -0.181738456802E+02   -0.28011E-06   -0.15947E-06   135   0.618E-03    0.161E-03
RMM:  17    -0.181738458500E+02   -0.16982E-06   -0.62025E-07   129   0.413E-03    0.160E-03
RMM:  18    -0.181738457680E+02    0.82019E-07   -0.99636E-08   118   0.178E-03    0.436E-04
RMM:  19    -0.181738457646E+02    0.33986E-08   -0.28753E-08   108   0.910E-04
   1 F= -.18173846E+02 E0= -.18173846E+02  d E =-.181738E+02
       N       E                     dE             d eps       ncg     rms          rms(c)
DAV:   1    -0.182242156814E+02   -0.50370E-01   -0.58079E-01   136   0.525E+00    0.146E+00
RMM:   2    -0.181855649987E+02    0.38651E-01   -0.15804E-01   128   0.208E+00    0.381E-01
RMM:   3    -0.181815236014E+02    0.40414E-02   -0.13808E-02   128   0.733E-01    0.146E-01
RMM:   4    -0.181815606971E+02   -0.37096E-04   -0.37011E-03   128   0.354E-01    0.124E-01
RMM:   5    -0.181816037786E+02   -0.43081E-04   -0.68860E-04   130   0.172E-01    0.395E-02
RMM:   6    -0.181815949949E+02    0.87837E-05   -0.16360E-04   131   0.857E-02    0.161E-02
RMM:   7    -0.181816003689E+02   -0.53740E-05   -0.33787E-05   130   0.411E-02    0.110E-02
RMM:   8    -0.181815982156E+02    0.21534E-05   -0.10418E-05   134   0.193E-02    0.219E-03
RMM:   9    -0.181815985615E+02   -0.34592E-06   -0.25326E-06   137   0.897E-03    0.146E-03
RMM:  10    -0.181815985981E+02   -0.36618E-07   -0.36637E-07   119   0.257E-03    0.152E-03
RMM:  11    -0.181815987362E+02   -0.13808E-06   -0.13287E-07   128   0.204E-03    0.966E-04
RMM:  12    -0.181815987307E+02    0.54744E-08   -0.31483E-08   114   0.123E-03
   2 F= -.18181599E+02 E0= -.18181599E+02  d E =-.775297E-02
       N       E                     dE             d eps       ncg     rms          rms(c)
DAV:   1    -0.181851569787E+02   -0.35582E-02   -0.40991E-02   160   0.139E+00    0.387E-01
RMM:   2    -0.181824207202E+02    0.27363E-02   -0.11027E-02   128   0.548E-01    0.100E-01
RMM:   3    -0.181821477761E+02    0.27294E-03   -0.96081E-04   128   0.194E-01    0.377E-02
RMM:   4    -0.181821530277E+02   -0.52516E-05   -0.25653E-04   128   0.935E-02    0.324E-02
RMM:   5    -0.181821593599E+02   -0.63322E-05   -0.47179E-05   130   0.454E-02    0.934E-03
RMM:   6    -0.181821598546E+02   -0.49475E-06   -0.11317E-05   130   0.227E-02    0.396E-03
RMM:   7    -0.181821603547E+02   -0.50002E-06   -0.25754E-06   133   0.113E-02    0.243E-03
RMM:   8    -0.181821601985E+02    0.15618E-06   -0.72088E-07   131   0.490E-03    0.778E-04
RMM:   9    -0.181821603075E+02   -0.10902E-06   -0.13766E-07   128   0.208E-03    0.309E-04
RMM:  10    -0.181821602889E+02    0.18592E-07   -0.14995E-08    97   0.659E-04    0.169E-04
RMM:  11    -0.181821603348E+02   -0.45849E-07   -0.39432E-09    93   0.448E-04    0.308E-04
RMM:  12    -0.181821603060E+02    0.28800E-07   -0.14482E-09    85   0.237E-04    0.615E-05
RMM:  13    -0.181821603071E+02   -0.10779E-08   -0.26437E-10    64   0.136E-04
   3 F= -.18182160E+02 E0= -.18182160E+02  d E =-.831454E-02
       N       E                     dE             d eps       ncg     rms          rms(c)
DAV:   1    -0.181937497468E+02   -0.11589E-01   -0.16416E-01   128   0.280E+00    0.776E-01
RMM:   2    -0.181827674400E+02    0.10982E-01   -0.44114E-02   128   0.110E+00    0.199E-01
RMM:   3    -0.181816906763E+02    0.10768E-02   -0.39381E-03   129   0.391E-01    0.767E-02
RMM:   4    -0.181817046171E+02   -0.13941E-04   -0.10143E-03   128   0.187E-01    0.646E-02
RMM:   5    -0.181817188984E+02   -0.14281E-04   -0.17649E-04   131   0.893E-02    0.176E-02
RMM:   6    -0.181817203229E+02   -0.14245E-05   -0.46244E-05   131   0.457E-02    0.797E-03
RMM:   7    -0.181817220130E+02   -0.16900E-05   -0.92765E-06   130   0.220E-02    0.513E-03
RMM:   8    -0.181817215007E+02    0.51230E-06   -0.29888E-06   133   0.973E-03    0.159E-03
RMM:   9    -0.181817216473E+02   -0.14666E-06   -0.42269E-07   137   0.367E-03    0.621E-04
RMM:  10    -0.181817217028E+02   -0.55464E-07   -0.45540E-08   108   0.127E-03    0.403E-04
RMM:  11    -0.181817217696E+02   -0.66789E-07   -0.91275E-09    96   0.664E-04    0.209E-04
RMM:  12    -0.181817217514E+02    0.18202E-07   -0.35060E-09    95   0.357E-04    0.477E-05
RMM:  13    -0.181817217540E+02   -0.26218E-08   -0.78467E-10    79   0.200E-04
   4 F= -.18181722E+02 E0= -.18181722E+02  d E =-.787599E-02
       N       E                     dE             d eps       ncg     rms          rms(c)
DAV:   1    -0.181884606661E+02   -0.67389E-02   -0.84674E-02   128   0.200E+00    0.555E-01
RMM:   2    -0.181827983200E+02    0.56623E-02   -0.22688E-02   128   0.787E-01    0.144E-01
RMM:   3    -0.181822448264E+02    0.55349E-03   -0.20114E-03   129   0.279E-01    0.537E-02
RMM:   4    -0.181822472002E+02   -0.23738E-05   -0.51643E-04   128   0.133E-01    0.463E-02
RMM:   5    -0.181822428162E+02    0.43840E-05   -0.91105E-05   133   0.635E-02    0.126E-02
RMM:   6    -0.181822412553E+02    0.15609E-05   -0.23266E-05   131   0.320E-02    0.551E-03
RMM:   7    -0.181822413738E+02   -0.11848E-06   -0.43487E-06   130   0.150E-02    0.317E-03
RMM:   8    -0.181822416038E+02   -0.23000E-06   -0.13897E-06   135   0.642E-03    0.123E-03
RMM:   9    -0.181822415323E+02    0.71441E-07   -0.14556E-07   123   0.218E-03    0.477E-04
RMM:  10    -0.181822414874E+02    0.44907E-07   -0.24111E-08    99   0.873E-04    0.342E-04
RMM:  11    -0.181822414298E+02    0.57570E-07   -0.67581E-09    95   0.570E-04    0.195E-04
RMM:  12    -0.181822414465E+02   -0.16691E-07   -0.19009E-09    88   0.266E-04    0.558E-05
RMM:  13    -0.181822414460E+02    0.51341E-09   -0.41379E-10    68   0.153E-04
   5 F= -.18182241E+02 E0= -.18182241E+02  d E =-.839568E-02
