 vasp.6.2.1 16May21 (build Dec 23 2021 00:35:04) complex                        
  
 executed on             LinuxIFC date 2023.03.03  00:54:12
 running on  128 total cores
 distrk:  each k-point on  128 cores,    1 groups
 distr:  one band on NCORE=  16 cores,    8 groups


--------------------------------------------------------------------------------------------------------


 INCAR:
   ENCUT = 400.000000
   KSPACING = 0.500000
   SIGMA = 0.100000
   EDIFF = 1.00e-08
   EDIFFG = -1.00e-02
   ALGO = Fast
   GGA = PE
   PREC = Normal
   IBRION = 2
   ISIF = 3
   ISMEAR = 0
   ISPIN = 0
   LMAXMIX = 6
   NELM = 150
   NPAR = 8
   NSW = 800
   NWRITE = 1
   KGAMMA = .TRUE.
   LASPH = .TRUE.
   LCHARG = .FALSE.
   LWAVE = .FALSE.
   LREAL = AUTO

 POTCAR:    PAW_PBE Na 08Apr2002                  
 POTCAR:    PAW_PBE O 08Apr2002                   
 POTCAR:    PAW_PBE Cl 06Sep2000                  
 POTCAR:    PAW_PBE Na 08Apr2002                  
  local pseudopotential read in
  partial core-charges read in
  partial kinetic energy density read in
  atomic valenz-charges read in
  non local Contribution for L=           0  read in
    real space projection operators read in
  non local Contribution for L=           0  read in
    real space projection operators read in
  non local Contribution for L=           1  read in
    real space projection operators read in
    PAW grid and wavefunctions read in
 
   number of l-projection  operators is LMAX  =           3
   number of lm-projection operators is LMMAX =           5
 
 POTCAR:    PAW_PBE O 08Apr2002                   
  local pseudopotential read in
  partial core-charges read in
  partial kinetic energy density read in
  kinetic energy density of atom read in
  atomic valenz-charges read in
  non local Contribution for L=           0  read in
    real space projection operators read in
  non local Contribution for L=           0  read in
    real space projection operators read in
  non local Contribution for L=           1  read in
    real space projection operators read in
  non local Contribution for L=           1  read in
    real space projection operators read in
    PAW grid and wavefunctions read in
 
   number of l-projection  operators is LMAX  =           4
   number of lm-projection operators is LMMAX =           8
 
 POTCAR:    PAW_PBE Cl 06Sep2000                  
  local pseudopotential read in
  partial core-charges read in
  partial kinetic energy density read in
  atomic valenz-charges read in
  non local Contribution for L=           0  read in
    real space projection operators read in
  non local Contribution for L=           0  read in
    real space projection operators read in
  non local Contribution for L=           1  read in
    real space projection operators read in
  non local Contribution for L=           1  read in
    real space projection operators read in
    PAW grid and wavefunctions read in
 
   number of l-projection  operators is LMAX  =           4
   number of lm-projection operators is LMMAX =           8
 
 -----------------------------------------------------------------------------
|                                                                             |
|               ----> ADVICE to this user running VASP <----                  |
|                                                                             |
|     You have a (more or less) 'small supercell' and for smaller cells       |
|     it is recommended to use the reciprocal-space projection scheme!        |
|     The real-space optimization is not efficient for small cells and it     |
|     is also less accurate ...                                               |
|     Therefore, set LREAL=.FALSE. in the INCAR file.                         |
|                                                                             |
 -----------------------------------------------------------------------------

 Optimization of the real space projectors (new method)

 maximal supplied QI-value         = 17.01
 optimisation between [QCUT,QGAM] = [ 10.20, 20.41] = [ 29.16,116.64] Ry 
 Optimized for a Real-space Cutoff    1.19 Angstroem

   l    n(q)    QCUT    max X(q) W(low)/X(q) W(high)/X(q)  e(spline) 
   0      7    10.205    45.123    0.22E-03    0.82E-03    0.11E-06
   0      7    10.205    12.364    0.17E-03    0.61E-03    0.75E-07
   1      7    10.205     8.302    0.37E-03    0.15E-03    0.27E-07
 Optimization of the real space projectors (new method)

 maximal supplied QI-value         = 24.76
 optimisation between [QCUT,QGAM] = [ 10.15, 20.30] = [ 28.85,115.39] Ry 
 Optimized for a Real-space Cutoff    1.38 Angstroem

   l    n(q)    QCUT    max X(q) W(low)/X(q) W(high)/X(q)  e(spline) 
   0      8    10.150    20.381    0.22E-03    0.32E-03    0.29E-06
   0      8    10.150    15.268    0.23E-03    0.35E-03    0.30E-06
   1      8    10.150     5.964    0.46E-03    0.53E-03    0.21E-06
   1      8    10.150     5.382    0.38E-03    0.45E-03    0.19E-06
 Optimization of the real space projectors (new method)

 maximal supplied QI-value         = 19.84
 optimisation between [QCUT,QGAM] = [ 10.12, 20.44] = [ 28.68,116.96] Ry 
 Optimized for a Real-space Cutoff    1.23 Angstroem

   l    n(q)    QCUT    max X(q) W(low)/X(q) W(high)/X(q)  e(spline) 
   0      7    10.119   168.010    0.54E-04    0.25E-03    0.48E-07
   0      7    10.119   164.674    0.53E-04    0.25E-03    0.47E-07
   1      7    10.119    69.222    0.45E-03    0.63E-03    0.13E-06
   1      7    10.119    56.786    0.45E-03    0.62E-03    0.13E-06
  PAW_PBE Na 08Apr2002                  :
 energy of atom  1       EATOM=   -5.1581
 kinetic energy error for atom=    0.0001 (will be added to EATOM!!)
  PAW_PBE O 08Apr2002                   :
 energy of atom  2       EATOM= -432.3788
 kinetic energy error for atom=    0.1156 (will be added to EATOM!!)
  PAW_PBE Cl 06Sep2000                  :
 energy of atom  3       EATOM= -409.7259
 kinetic energy error for atom=    0.0089 (will be added to EATOM!!)
 
 
 POSCAR: Na  O Cl
  positions in cartesian coordinates
  No initial velocities read in
 exchange correlation table for  LEXCH =        8
   RHO(1)=    0.500       N(1)  =     2000
   RHO(2)=  100.500       N(2)  =     4000
 


--------------------------------------------------------------------------------------------------------


 ion  position               nearest neighbor table
   1  0.500  0.500  0.000-   4 2.25   4 2.25   2 3.18   5 3.18   2 3.18   3 3.18   3 3.18   3 3.18
                             5 3.18   3 3.18   2 3.18   5 3.18   2 3.18   5 3.18
   2  0.000  0.500  0.500-   4 2.25   4 2.25   1 3.18   5 3.18   1 3.18   5 3.18   3 3.18   5 3.18
                             5 3.18   1 3.18   3 3.18   3 3.18   1 3.18   3 3.18
   3  0.500  0.000  0.500-   4 2.25   4 2.25   1 3.18   5 3.18   1 3.18   5 3.18   1 3.18   2 3.18
                             2 3.18   1 3.18   2 3.18   5 3.18   5 3.18   2 3.18
   4  0.500  0.500  0.500-   1 2.25   2 2.25   3 2.25   1 2.25   3 2.25   2 2.25
   5  0.000  0.000  0.000-   1 3.18   2 3.18   3 3.18   2 3.18   3 3.18   1 3.18   2 3.18   2 3.18
                             1 3.18   3 3.18   3 3.18   1 3.18
 
  LATTYP: Found a simple cubic cell.
 ALAT       =     4.4960000000
  
  Lattice vectors:
  
 A1 = (   4.4960000000,   0.0000000000,   0.0000000000)
 A2 = (   0.0000000000,   4.4960000000,   0.0000000000)
 A3 = (   0.0000000000,   0.0000000000,   4.4960000000)


Analysis of symmetry for initial positions (statically):
=====================================================================
 Subroutine PRICEL returns:
 Original cell was already a primitive cell.
 

 Routine SETGRP: Setting up the symmetry group for a 
 simple cubic supercell.


 Subroutine GETGRP returns: Found 48 space group operations
 (whereof 48 operations were pure point group operations)
 out of a pool of 48 trial point group operations.


The static configuration has the point symmetry O_h .


Analysis of symmetry for dynamics (positions and initial velocities):
=====================================================================
 Subroutine PRICEL returns:
 Original cell was already a primitive cell.
 

 Routine SETGRP: Setting up the symmetry group for a 
 simple cubic supercell.


 Subroutine GETGRP returns: Found 48 space group operations
 (whereof 48 operations were pure point group operations)
 out of a pool of 48 trial point group operations.


The dynamic configuration has the point symmetry O_h .


 Subroutine INISYM returns: Found 48 space group operations
 (whereof 48 operations are pure point group operations),
 and found     1 'primitive' translations


----------------------------------------------------------------------------------------

                                     Primitive cell                                     

  volume of cell :      90.8822

  direct lattice vectors                    reciprocal lattice vectors
     4.496000000  0.000000000  0.000000000     0.222419929  0.000000000  0.000000000
     0.000000000  4.496000000  0.000000000     0.000000000  0.222419929  0.000000000
     0.000000000  0.000000000  4.496000000     0.000000000  0.000000000  0.222419929

  length of vectors
     4.496000000  4.496000000  4.496000000     0.222419929  0.222419929  0.222419929

  position of ions in fractional coordinates (direct lattice)
     0.500000000  0.500000000  0.000000000
     0.000000000  0.500000000  0.500000000
     0.500000000  0.000000000  0.500000000
     0.500000000  0.500000000  0.500000000
     0.000000000  0.000000000  0.000000000

  ion indices of the primitive-cell ions
   primitive index   ion index
                 1           1
                 2           2
                 3           3
                 4           4
                 5           5

----------------------------------------------------------------------------------------

 
 -----------------------------------------------------------------------------
|                                                                             |
|           W    W    AA    RRRRR   N    N  II  N    N   GGGG   !!!           |
|           W    W   A  A   R    R  NN   N  II  NN   N  G    G  !!!           |
|           W    W  A    A  R    R  N N  N  II  N N  N  G       !!!           |
|           W WW W  AAAAAA  RRRRR   N  N N  II  N  N N  G  GGG   !            |
|           WW  WW  A    A  R   R   N   NN  II  N   NN  G    G                |
|           W    W  A    A  R    R  N    N  II  N    N   GGGG   !!!           |
|                                                                             |
|     The requested file  could not be found or opened for reading            |
|     k-point information. Automatic k-point generation is used as a          |
|     fallback, which may lead to unwanted results.                           |
|                                                                             |
 -----------------------------------------------------------------------------

 

Automatic generation of k-mesh.
 Grid dimensions derived from KSPACING:
 generate k-points for:    3    3    3

 Generating k-lattice:

  Cartesian coordinates                     Fractional coordinates (reciprocal lattice)
     0.074139976  0.000000000  0.000000000     0.333333333  0.000000000  0.000000000
     0.000000000  0.074139976  0.000000000     0.000000000  0.333333333  0.000000000
     0.000000000  0.000000000  0.074139976     0.000000000  0.000000000  0.333333333

  Length of vectors
     0.074139976  0.074139976  0.074139976

  Shift w.r.t. Gamma in fractional coordinates (k-lattice)
     0.000000000  0.000000000  0.000000000

 
 Subroutine IBZKPT returns following result:
 ===========================================
 
 Found      4 irreducible k-points:
 
 Following reciprocal coordinates:
            Coordinates               Weight
  0.000000  0.000000  0.000000      1.000000
  0.333333  0.000000  0.000000      6.000000
  0.333333  0.333333  0.000000     12.000000
  0.333333  0.333333  0.333333      8.000000
 
 Following cartesian coordinates:
            Coordinates               Weight
  0.000000  0.000000  0.000000      1.000000
  0.074140  0.000000  0.000000      6.000000
  0.074140  0.074140  0.000000     12.000000
  0.074140  0.074140  0.074140      8.000000
 


--------------------------------------------------------------------------------------------------------




 Dimension of arrays:
   k-points           NKPTS =      4   k-points in BZ     NKDIM =      4   number of bands    NBANDS=     16
   number of dos      NEDOS =    301   number of ions     NIONS =      5
   non local maximal  LDIM  =      4   non local SUM 2l+1 LMDIM =      8
   total plane-waves  NPLWV =  13824
   max r-space proj   IRMAX =   1726   max aug-charges    IRDMAX=   7604
   dimension x,y,z NGX =    24 NGY =   24 NGZ =   24
   dimension x,y,z NGXF=    48 NGYF=   48 NGZF=   48
   support grid    NGXF=    48 NGYF=   48 NGZF=   48
   ions per type =               3   1   1
   NGX,Y,Z   is equivalent  to a cutoff of   8.87,  8.87,  8.87 a.u.
   NGXF,Y,Z  is equivalent  to a cutoff of  17.75, 17.75, 17.75 a.u.

 SYSTEM =  unknown system                          
 POSCAR =  Na  O Cl                                

 Startparameter for this run:
   NWRITE =      1    write-flag & timer
   PREC   = normal    normal or accurate (medium, high low for compatibility)
   ISTART =      0    job   : 0-new  1-cont  2-samecut
   ICHARG =      2    charge: 1-file 2-atom 10-const
   ISPIN  =      1    spin polarized calculation?
   LNONCOLLINEAR =      F non collinear calculations
   LSORBIT =      F    spin-orbit coupling
   INIWAV =      1    electr: 0-lowe 1-rand  2-diag
   LASPH  =      T    aspherical Exc in radial PAW
 Electronic Relaxation 1
   ENCUT  =  400.0 eV  29.40 Ry    5.42 a.u.   7.33  7.33  7.33*2*pi/ulx,y,z
   ENINI  =  400.0     initial cutoff
   ENAUG  =  605.4 eV  augmentation charge cutoff
   NELM   =    150;   NELMIN=  2; NELMDL= -5     # of ELM steps 
   EDIFF  = 0.1E-07   stopping-criterion for ELM
   LREAL  =      T    real-space projection
   NLSPLINE    = F    spline interpolate recip. space projectors
   LCOMPAT=      F    compatible to vasp.4.4
   GGA_COMPAT  = T    GGA compatible to vasp.4.4-vasp.4.6
   LMAXPAW     = -100 max onsite density
   LMAXMIX     =    6 max onsite mixed and CHGCAR
   VOSKOWN=      0    Vosko Wilk Nusair interpolation
   ROPT   =   -0.00050  -0.00050  -0.00050
 Ionic relaxation
   EDIFFG = -.1E-01   stopping-criterion for IOM
   NSW    =    800    number of steps for IOM
   NBLOCK =      1;   KBLOCK =    800    inner block; outer block 
   IBRION =      2    ionic relax: 0-MD 1-quasi-New 2-CG
   NFREE  =      1    steps in history (QN), initial steepest desc. (CG)
   ISIF   =      3    stress and relaxation
   IWAVPR =     11    prediction:  0-non 1-charg 2-wave 3-comb
   ISYM   =      2    0-nonsym 1-usesym 2-fastsym
   LCORR  =      T    Harris-Foulkes like correction to forces

   POTIM  = 0.5000    time-step for ionic-motion
   TEIN   =    0.0    initial temperature
   TEBEG  =    0.0;   TEEND  =   0.0 temperature during run
   SMASS  =  -3.00    Nose mass-parameter (am)
   estimated Nose-frequenzy (Omega)   =  0.10E-29 period in steps = 0.13E+47 mass=  -0.462E-27a.u.
   SCALEE = 1.0000    scale energy and forces
   NPACO  =    256;   APACO  = 16.0  distance and # of slots for P.C.
   PSTRESS=    0.0 pullay stress

  Mass of Ions in am
   POMASS =  22.99 16.00 35.45
  Ionic Valenz
   ZVAL   =   1.00  6.00  7.00
  Atomic Wigner-Seitz radii
   RWIGS  =  -1.00 -1.00 -1.00
  virtual crystal weights 
   VCA    =   1.00  1.00  1.00
   NELECT =      16.0000    total number of electrons
   NUPDOWN=      -1.0000    fix difference up-down

 DOS related values:
   EMIN   =  10.00;   EMAX   =-10.00  energy-range for DOS
   EFERMI =   0.00
   ISMEAR =     0;   SIGMA  =   0.10  broadening in eV -4-tet -1-fermi 0-gaus

 Electronic relaxation 2 (details)
   IALGO  =     68    algorithm
   LDIAG  =      T    sub-space diagonalisation (order eigenvalues)
   LSUBROT=      F    optimize rotation matrix (better conditioning)
   TURBO    =      0    0=normal 1=particle mesh
   IRESTART =      0    0=no restart 2=restart with 2 vectors
   NREBOOT  =      0    no. of reboots
   NMIN     =      0    reboot dimension
   EREF     =   0.00    reference energy to select bands
   IMIX   =      4    mixing-type and parameters
     AMIX     =   0.40;   BMIX     =  1.00
     AMIX_MAG =   1.60;   BMIX_MAG =  1.00
     AMIN     =   0.10
     WC   =   100.;   INIMIX=   1;  MIXPRE=   1;  MAXMIX= -45

 Intra band minimization:
   WEIMIN = 0.0010     energy-eigenvalue tresh-hold
   EBREAK =  0.16E-09  absolut break condition
   DEPER  =   0.30     relativ break condition  

   TIME   =   0.40     timestep for ELM

  volume/ion in A,a.u.               =      18.18       122.66
  Fermi-wavevector in a.u.,A,eV,Ry     =   0.917533  1.733887 11.454302  0.841867
  Thomas-Fermi vector in A             =   2.042513
 
 Write flags
   LWAVE        =      F    write WAVECAR
   LDOWNSAMPLE  =      F    k-point downsampling of WAVECAR
   LCHARG       =      F    write CHGCAR
   LVTOT        =      F    write LOCPOT, total local potential
   LVHAR        =      F    write LOCPOT, Hartree potential only
   LELF         =      F    write electronic localiz. function (ELF)
   LORBIT       =      0    0 simple, 1 ext, 2 COOP (PROOUT), +10 PAW based schemes


 Dipole corrections
   LMONO  =      F    monopole corrections only (constant potential shift)
   LDIPOL =      F    correct potential (dipole corrections)
   IDIPOL =      0    1-x, 2-y, 3-z, 4-all directions 
   EPSILON=  1.0000000 bulk dielectric constant

 Exchange correlation treatment:
   GGA     =    PE    GGA type
   LEXCH   =     8    internal setting for exchange type
   VOSKOWN=      0    Vosko Wilk Nusair interpolation
   LHFCALC =     F    Hartree Fock is set to
   LHFONE  =     F    Hartree Fock one center treatment
   AEXX    =    0.0000 exact exchange contribution

 Linear response parameters
   LEPSILON=     F    determine dielectric tensor
   LRPA    =     F    only Hartree local field effects (RPA)
   LNABLA  =     F    use nabla operator in PAW spheres
   LVEL    =     F    velocity operator in full k-point grid
   LINTERFAST=   F  fast interpolation
   KINTER  =     0    interpolate to denser k-point grid
   CSHIFT  =0.1000    complex shift for real part using Kramers Kronig
   OMEGAMAX=  -1.0    maximum frequency
   DEG_THRESHOLD= 0.2000000E-02 threshold for treating states as degnerate
   RTIME   =   -0.100 relaxation time in fs
  (WPLASMAI=    0.000 imaginary part of plasma frequency in eV, 0.658/RTIME)
   DFIELD  = 0.0000000 0.0000000 0.0000000 field for delta impulse in time
 
 Orbital magnetization related:
   ORBITALMAG=     F  switch on orbital magnetization
   LCHIMAG   =     F  perturbation theory with respect to B field
   DQ        =  0.001000  dq finite difference perturbation B field
   LLRAUG    =     F  two centre corrections for induced B field



--------------------------------------------------------------------------------------------------------


 conjugate gradient relaxation of ions
 charge density and potential will be updated during run
 non-spin polarized calculation
 RMM-DIIS sequential band-by-band and
  variant of blocked Davidson during initial phase
 perform sub-space diagonalisation
    before iterative eigenvector-optimisation
 modified Broyden-mixing scheme, WC =      100.0
 initial mixing is a Kerker type mixing with AMIX =  0.4000 and BMIX =      1.0000
 Hartree-type preconditioning will be used
 using additional bands            8
 real space projection scheme for non local part
 use partial core corrections
 calculate Harris-corrections to forces 
   (improved forces if not selfconsistent)
 use gradient corrections 
 use of overlap-Matrix (Vanderbilt PP)
 Gauss-broadening in eV      SIGMA  =   0.10


--------------------------------------------------------------------------------------------------------


  energy-cutoff  :      400.00
  volume of cell :       90.88
      direct lattice vectors                 reciprocal lattice vectors
     4.496000000  0.000000000  0.000000000     0.222419929  0.000000000  0.000000000
     0.000000000  4.496000000  0.000000000     0.000000000  0.222419929  0.000000000
     0.000000000  0.000000000  4.496000000     0.000000000  0.000000000  0.222419929

  length of vectors
     4.496000000  4.496000000  4.496000000     0.222419929  0.222419929  0.222419929


 
 k-points in units of 2pi/SCALE and weight: read from INCAR                         
   0.00000000  0.00000000  0.00000000       0.037
   0.07413998  0.00000000  0.00000000       0.222
   0.07413998  0.07413998  0.00000000       0.444
   0.07413998  0.07413998  0.07413998       0.296
 
 k-points in reciprocal lattice and weights: read from INCAR                         
   0.00000000  0.00000000  0.00000000       0.037
   0.33333333  0.00000000  0.00000000       0.222
   0.33333333  0.33333333  0.00000000       0.444
   0.33333333  0.33333333  0.33333333       0.296
 
 position of ions in fractional coordinates (direct lattice) 
   0.50000000  0.50000000  0.00000000
   0.00000000  0.50000000  0.50000000
   0.50000000  0.00000000  0.50000000
   0.50000000  0.50000000  0.50000000
   0.00000000  0.00000000  0.00000000
 
 position of ions in cartesian coordinates  (Angst):
   2.24800000  2.24800000  0.00000000
   0.00000000  2.24800000  2.24800000
   2.24800000  0.00000000  2.24800000
   2.24800000  2.24800000  2.24800000
   0.00000000  0.00000000  0.00000000
 


--------------------------------------------------------------------------------------------------------


 k-point   1 :   0.0000 0.0000 0.0000  plane waves:    1647
 k-point   2 :   0.3333 0.0000 0.0000  plane waves:    1662
 k-point   3 :   0.3333 0.3333 0.0000  plane waves:    1634
 k-point   4 :   0.3333 0.3333 0.3333  plane waves:    1646

 maximum and minimum number of plane-waves per node :       113       94

 maximum number of plane-waves:      1662
 maximum index in each direction: 
   IXMAX=    7   IYMAX=    7   IZMAX=    7
   IXMIN=   -7   IYMIN=   -7   IZMIN=   -7


 real space projection operators:
  total allocation   :        296.90 KBytes
  max/ min on nodes  :         26.24         12.95


 parallel 3D FFT for wavefunctions:
    minimum data exchange during FFTs selected (reduces bandwidth)
 parallel 3D FFT for charge:
    minimum data exchange during FFTs selected (reduces bandwidth)


 total amount of memory used by VASP MPI-rank0    30527. kBytes
=======================================================================

   base      :      30000. kBytes
   nonlr-proj:        176. kBytes
   fftplans  :        134. kBytes
   grid      :        198. kBytes
   one-center:          3. kBytes
   wavefun   :         16. kBytes
 
     INWAV:  cpu time    0.0000: real time    0.0001
 Broyden mixing: mesh for mixing (old mesh)
   NGX = 15   NGY = 15   NGZ = 15
  (NGX  = 48   NGY  = 48   NGZ  = 48)
  gives a total of   3375 points

 initial charge density was supplied:
 charge density of overlapping atoms calculated
 number of electron      16.0000000 magnetization 
 keeping initial charge density in first step


--------------------------------------------------------------------------------------------------------


 Maximum index for non-local projection operator          137
 Maximum index for augmentation-charges          437 (set IRDMAX)


--------------------------------------------------------------------------------------------------------


 First call to EWALD:  gamma=   0.394
 Maximum number of real-space cells 3x 3x 3
 Maximum number of reciprocal cells 3x 3x 3

    FEWALD:  cpu time    0.0011: real time    0.0011


--------------------------------------- Iteration      1(   1)  ---------------------------------------


    POTLOK:  cpu time    0.0078: real time    0.0096
    SETDIJ:  cpu time    0.0399: real time    0.0403
     EDDAV:  cpu time    0.0682: real time    0.0747
       DOS:  cpu time    0.0014: real time    0.0018
    --------------------------------------------
      LOOP:  cpu time    0.1173: real time    0.1265

 eigenvalue-minimisations  :   128
 total energy-change (2. order) : 0.8040103E+02  (-0.4746277E+03)
 number of electron      16.0000000 magnetization 
 augmentation part       16.0000000 magnetization 

 Free energy of the ion-electron system (eV)
  ---------------------------------------------------
  alpha Z        PSCENC =        -0.28479147
  Ewald energy   TEWEN  =      -558.02282115
  -Hartree energ DENC   =      -268.18660937
  -exchange      EXHF   =         0.00000000
  -V(xc)+E(xc)   XCENC  =       -62.03197772
  PAW double counting   =       791.45347246     -680.84039699
  entropy T*S    EENTRO =        -0.00326787
  eigenvalues    EBANDS =         0.86310990
  atomic energy  EATOM  =       857.45430997
  Solvation  Ediel_sol  =         0.00000000
  ---------------------------------------------------
  free energy    TOTEN  =        80.40102775 eV

  energy without entropy =       80.40429562  energy(sigma->0) =       80.40266169


--------------------------------------------------------------------------------------------------------




--------------------------------------- Iteration      1(   2)  ---------------------------------------


     EDDAV:  cpu time    0.0646: real time    0.0672
       DOS:  cpu time    0.0001: real time    0.0001
    --------------------------------------------
      LOOP:  cpu time    0.0647: real time    0.0673

 eigenvalue-minimisations  :   192
 total energy-change (2. order) :-0.9362145E+02  (-0.8027453E+02)
 number of electron      16.0000000 magnetization 
 augmentation part       16.0000000 magnetization 

 Free energy of the ion-electron system (eV)
  ---------------------------------------------------
  alpha Z        PSCENC =        -0.28479147
  Ewald energy   TEWEN  =      -558.02282115
  -Hartree energ DENC   =      -268.18660937
  -exchange      EXHF   =         0.00000000
  -V(xc)+E(xc)   XCENC  =       -62.03197772
  PAW double counting   =       791.45347246     -680.84039699
  entropy T*S    EENTRO =        -0.00000000
  eigenvalues    EBANDS =       -92.76160297
  atomic energy  EATOM  =       857.45430997
  Solvation  Ediel_sol  =         0.00000000
  ---------------------------------------------------
  free energy    TOTEN  =       -13.22041725 eV

  energy without entropy =      -13.22041725  energy(sigma->0) =      -13.22041725


--------------------------------------------------------------------------------------------------------




--------------------------------------- Iteration      1(   3)  ---------------------------------------


     EDDAV:  cpu time    0.0737: real time    0.0753
       DOS:  cpu time    0.0004: real time    0.0004
    --------------------------------------------
      LOOP:  cpu time    0.0742: real time    0.0758

 eigenvalue-minimisations  :   144
 total energy-change (2. order) :-0.9541173E+01  (-0.9471995E+01)
 number of electron      16.0000000 magnetization 
 augmentation part       16.0000000 magnetization 

 Free energy of the ion-electron system (eV)
  ---------------------------------------------------
  alpha Z        PSCENC =        -0.28479147
  Ewald energy   TEWEN  =      -558.02282115
  -Hartree energ DENC   =      -268.18660937
  -exchange      EXHF   =         0.00000000
  -V(xc)+E(xc)   XCENC  =       -62.03197772
  PAW double counting   =       791.45347246     -680.84039699
  entropy T*S    EENTRO =        -0.00000000
  eigenvalues    EBANDS =      -102.30277590
  atomic energy  EATOM  =       857.45430997
  Solvation  Ediel_sol  =         0.00000000
  ---------------------------------------------------
  free energy    TOTEN  =       -22.76159018 eV

  energy without entropy =      -22.76159018  energy(sigma->0) =      -22.76159018


--------------------------------------------------------------------------------------------------------




--------------------------------------- Iteration      1(   4)  ---------------------------------------


     EDDAV:  cpu time    0.0638: real time    0.0638
       DOS:  cpu time    0.0001: real time    0.0001
    --------------------------------------------
      LOOP:  cpu time    0.0639: real time    0.0639

 eigenvalue-minimisations  :   176
 total energy-change (2. order) :-0.1737201E+00  (-0.1735556E+00)
 number of electron      16.0000000 magnetization 
 augmentation part       16.0000000 magnetization 

 Free energy of the ion-electron system (eV)
  ---------------------------------------------------
  alpha Z        PSCENC =        -0.28479147
  Ewald energy   TEWEN  =      -558.02282115
  -Hartree energ DENC   =      -268.18660937
  -exchange      EXHF   =         0.00000000
  -V(xc)+E(xc)   XCENC  =       -62.03197772
  PAW double counting   =       791.45347246     -680.84039699
  entropy T*S    EENTRO =        -0.00000000
  eigenvalues    EBANDS =      -102.47649600
  atomic energy  EATOM  =       857.45430997
  Solvation  Ediel_sol  =         0.00000000
  ---------------------------------------------------
  free energy    TOTEN  =       -22.93531028 eV

  energy without entropy =      -22.93531028  energy(sigma->0) =      -22.93531028


--------------------------------------------------------------------------------------------------------




--------------------------------------- Iteration      1(   5)  ---------------------------------------


     EDDAV:  cpu time    0.1574: real time    0.1663
       DOS:  cpu time    0.0001: real time    0.0001
    CHARGE:  cpu time    0.0065: real time    0.0076
    MIXING:  cpu time    0.0038: real time    0.0049
    --------------------------------------------
      LOOP:  cpu time    0.1677: real time    0.1790

 eigenvalue-minimisations  :   160
 total energy-change (2. order) :-0.4290651E-02  (-0.4290102E-02)
 number of electron      15.9999902 magnetization 
 augmentation part       -0.0652166 magnetization 

 Broyden mixing:
  rms(total) = 0.10451E+01    rms(broyden)= 0.10447E+01
  rms(prec ) = 0.27092E+01
  weight for this iteration     100.00

 Free energy of the ion-electron system (eV)
  ---------------------------------------------------
  alpha Z        PSCENC =        -0.28479147
  Ewald energy   TEWEN  =      -558.02282115
  -Hartree energ DENC   =      -268.18660937
  -exchange      EXHF   =         0.00000000
  -V(xc)+E(xc)   XCENC  =       -62.03197772
  PAW double counting   =       791.45347246     -680.84039699
  entropy T*S    EENTRO =        -0.00000000
  eigenvalues    EBANDS =      -102.48078665
  atomic energy  EATOM  =       857.45430997
  Solvation  Ediel_sol  =         0.00000000
  ---------------------------------------------------
  free energy    TOTEN  =       -22.93960093 eV

  energy without entropy =      -22.93960093  energy(sigma->0) =      -22.93960093


--------------------------------------------------------------------------------------------------------




--------------------------------------- Iteration      1(   6)  ---------------------------------------


    POTLOK:  cpu time    0.0035: real time    0.0035
    SETDIJ:  cpu time    0.0394: real time    0.0394
    EDDIAG:  cpu time    0.0186: real time    0.0199
  RMM-DIIS:  cpu time    0.0061: real time    0.0070
    ORTHCH:  cpu time    0.0018: real time    0.0018
       DOS:  cpu time    0.0001: real time    0.0001
    CHARGE:  cpu time    0.0021: real time    0.0021
    MIXING:  cpu time    0.0021: real time    0.0024
    --------------------------------------------
      LOOP:  cpu time    0.0738: real time    0.0763

 eigenvalue-minimisations  :   128
 total energy-change (2. order) : 0.4464372E+01  (-0.1069094E+01)
 number of electron      15.9999927 magnetization 
 augmentation part       -0.3162004 magnetization 

 Broyden mixing:
  rms(total) = 0.46093E+00    rms(broyden)= 0.46019E+00
  rms(prec ) = 0.81556E+00
  weight for this iteration     100.00

 eigenvalues of (default mixing * dielectric matrix)
  average eigenvalue GAMMA=   0.7336
  0.7336

 Free energy of the ion-electron system (eV)
  ---------------------------------------------------
  alpha Z        PSCENC =        -0.28479147
  Ewald energy   TEWEN  =      -558.02282115
  -Hartree energ DENC   =      -305.50093544
  -exchange      EXHF   =         0.00000000
  -V(xc)+E(xc)   XCENC  =       -59.51536447
  PAW double counting   =       920.39362861     -810.33927122
  entropy T*S    EENTRO =        -0.00000000
  eigenvalues    EBANDS =       -62.65998353
  atomic energy  EATOM  =       857.45430997
  Solvation  Ediel_sol  =         0.00000000
  ---------------------------------------------------
  free energy    TOTEN  =       -18.47522869 eV

  energy without entropy =      -18.47522869  energy(sigma->0) =      -18.47522869


--------------------------------------------------------------------------------------------------------




--------------------------------------- Iteration      1(   7)  ---------------------------------------


    POTLOK:  cpu time    0.0037: real time    0.0037
    SETDIJ:  cpu time    0.0393: real time    0.0393
    EDDIAG:  cpu time    0.0171: real time    0.0181
  RMM-DIIS:  cpu time    0.0028: real time    0.0030
    ORTHCH:  cpu time    0.0010: real time    0.0010
       DOS:  cpu time    0.0001: real time    0.0001
    CHARGE:  cpu time    0.0020: real time    0.0020
    MIXING:  cpu time    0.0002: real time    0.0002
    --------------------------------------------
      LOOP:  cpu time    0.0661: real time    0.0673

 eigenvalue-minimisations  :   128
 total energy-change (2. order) : 0.1762424E+00  (-0.6272346E-01)
 number of electron      15.9999925 magnetization 
 augmentation part       -0.2877773 magnetization 

 Broyden mixing:
  rms(total) = 0.24934E+00    rms(broyden)= 0.24933E+00
  rms(prec ) = 0.50734E+00
  weight for this iteration     100.00

 eigenvalues of (default mixing * dielectric matrix)
  average eigenvalue GAMMA=   1.5328
  0.9293  2.1362

 Free energy of the ion-electron system (eV)
  ---------------------------------------------------
  alpha Z        PSCENC =        -0.28479147
  Ewald energy   TEWEN  =      -558.02282115
  -Hartree energ DENC   =      -304.72404631
  -exchange      EXHF   =         0.00000000
  -V(xc)+E(xc)   XCENC  =       -59.52257121
  PAW double counting   =       959.43861492     -849.28544071
  entropy T*S    EENTRO =        -0.00000000
  eigenvalues    EBANDS =       -63.35224032
  atomic energy  EATOM  =       857.45430997
  Solvation  Ediel_sol  =         0.00000000
  ---------------------------------------------------
  free energy    TOTEN  =       -18.29898628 eV

  energy without entropy =      -18.29898628  energy(sigma->0) =      -18.29898628


--------------------------------------------------------------------------------------------------------




--------------------------------------- Iteration      1(   8)  ---------------------------------------


    POTLOK:  cpu time    0.0036: real time    0.0036
    SETDIJ:  cpu time    0.0391: real time    0.0391
    EDDIAG:  cpu time    0.0156: real time    0.0156
  RMM-DIIS:  cpu time    0.0026: real time    0.0026
    ORTHCH:  cpu time    0.0010: real time    0.0010
       DOS:  cpu time    0.0001: real time    0.0001
    CHARGE:  cpu time    0.0020: real time    0.0020
    MIXING:  cpu time    0.0002: real time    0.0002
    --------------------------------------------
      LOOP:  cpu time    0.0643: real time    0.0643

 eigenvalue-minimisations  :   129
 total energy-change (2. order) : 0.1328858E+00  (-0.4489619E-01)
 number of electron      15.9999925 magnetization 
 augmentation part       -0.2857286 magnetization 

 Broyden mixing:
  rms(total) = 0.40402E-01    rms(broyden)= 0.40376E-01
  rms(prec ) = 0.65909E-01
  weight for this iteration     100.00

 eigenvalues of (default mixing * dielectric matrix)
  average eigenvalue GAMMA=   1.4300
  2.4280  0.9939  0.8682

 Free energy of the ion-electron system (eV)
  ---------------------------------------------------
  alpha Z        PSCENC =        -0.28479147
  Ewald energy   TEWEN  =      -558.02282115
  -Hartree energ DENC   =      -309.18134766
  -exchange      EXHF   =         0.00000000
  -V(xc)+E(xc)   XCENC  =       -59.07328966
  PAW double counting   =      1051.89990094     -941.65002594
  entropy T*S    EENTRO =        -0.00000000
  eigenvalues    EBANDS =       -59.30803550
  atomic energy  EATOM  =       857.45430997
  Solvation  Ediel_sol  =         0.00000000
  ---------------------------------------------------
  free energy    TOTEN  =       -18.16610048 eV

  energy without entropy =      -18.16610048  energy(sigma->0) =      -18.16610048


--------------------------------------------------------------------------------------------------------




--------------------------------------- Iteration      1(   9)  ---------------------------------------


    POTLOK:  cpu time    0.0037: real time    0.0037
    SETDIJ:  cpu time    0.0391: real time    0.0391
    EDDIAG:  cpu time    0.0153: real time    0.0161
  RMM-DIIS:  cpu time    0.0027: real time    0.0027
    ORTHCH:  cpu time    0.0010: real time    0.0010
       DOS:  cpu time    0.0001: real time    0.0001
    CHARGE:  cpu time    0.0020: real time    0.0020
    MIXING:  cpu time    0.0002: real time    0.0002
    --------------------------------------------
      LOOP:  cpu time    0.0640: real time    0.0648

 eigenvalue-minimisations  :   128
 total energy-change (2. order) :-0.4666626E-02  (-0.2565804E-02)
 number of electron      15.9999925 magnetization 
 augmentation part       -0.2831169 magnetization 

 Broyden mixing:
  rms(total) = 0.29308E-01    rms(broyden)= 0.29301E-01
  rms(prec ) = 0.48058E-01
  weight for this iteration     100.00

 eigenvalues of (default mixing * dielectric matrix)
  average eigenvalue GAMMA=   2.0003
  0.8475  1.0191  3.6491  2.4855

 Free energy of the ion-electron system (eV)
  ---------------------------------------------------
  alpha Z        PSCENC =        -0.28479147
  Ewald energy   TEWEN  =      -558.02282115
  -Hartree energ DENC   =      -308.78895878
  -exchange      EXHF   =         0.00000000
  -V(xc)+E(xc)   XCENC  =       -59.10804298
  PAW double counting   =      1044.56831727     -934.33560653
  entropy T*S    EENTRO =        -0.00000000
  eigenvalues    EBANDS =       -59.65317344
  atomic energy  EATOM  =       857.45430997
  Solvation  Ediel_sol  =         0.00000000
  ---------------------------------------------------
  free energy    TOTEN  =       -18.17076710 eV

  energy without entropy =      -18.17076710  energy(sigma->0) =      -18.17076710


--------------------------------------------------------------------------------------------------------




--------------------------------------- Iteration      1(  10)  ---------------------------------------


    POTLOK:  cpu time    0.0035: real time    0.0035
    SETDIJ:  cpu time    0.0389: real time    0.0389
    EDDIAG:  cpu time    0.0154: real time    0.0158
  RMM-DIIS:  cpu time    0.0024: real time    0.0024
    ORTHCH:  cpu time    0.0010: real time    0.0010
       DOS:  cpu time    0.0001: real time    0.0001
    CHARGE:  cpu time    0.0020: real time    0.0020
    MIXING:  cpu time    0.0002: real time    0.0002
    --------------------------------------------
      LOOP:  cpu time    0.0635: real time    0.0640

 eigenvalue-minimisations  :   128
 total energy-change (2. order) :-0.4212176E-02  (-0.1294691E-02)
 number of electron      15.9999926 magnetization 
 augmentation part       -0.2901530 magnetization 

 Broyden mixing:
  rms(total) = 0.24606E-01    rms(broyden)= 0.24602E-01
  rms(prec ) = 0.52654E-01
  weight for this iteration     100.00

 eigenvalues of (default mixing * dielectric matrix)
  average eigenvalue GAMMA=   1.6449
  2.7542  2.7542  0.9761  0.9761  0.7641

 Free energy of the ion-electron system (eV)
  ---------------------------------------------------
  alpha Z        PSCENC =        -0.28479147
  Ewald energy   TEWEN  =      -558.02282115
  -Hartree energ DENC   =      -309.26488268
  -exchange      EXHF   =         0.00000000
  -V(xc)+E(xc)   XCENC  =       -59.07454382
  PAW double counting   =      1040.40514291     -930.20412288
  entropy T*S    EENTRO =        -0.00000000
  eigenvalues    EBANDS =       -59.18327017
  atomic energy  EATOM  =       857.45430997
  Solvation  Ediel_sol  =         0.00000000
  ---------------------------------------------------
  free energy    TOTEN  =       -18.17497928 eV

  energy without entropy =      -18.17497928  energy(sigma->0) =      -18.17497928


--------------------------------------------------------------------------------------------------------




--------------------------------------- Iteration      1(  11)  ---------------------------------------


    POTLOK:  cpu time    0.0035: real time    0.0035
    SETDIJ:  cpu time    0.0390: real time    0.0390
    EDDIAG:  cpu time    0.0148: real time    0.0157
  RMM-DIIS:  cpu time    0.0027: real time    0.0027
    ORTHCH:  cpu time    0.0010: real time    0.0010
       DOS:  cpu time    0.0001: real time    0.0001
    CHARGE:  cpu time    0.0020: real time    0.0020
    MIXING:  cpu time    0.0002: real time    0.0002
    --------------------------------------------
      LOOP:  cpu time    0.0632: real time    0.0641

 eigenvalue-minimisations  :   128
 total energy-change (2. order) : 0.1202335E-02  (-0.2424780E-03)
 number of electron      15.9999925 magnetization 
 augmentation part       -0.2868541 magnetization 

 Broyden mixing:
  rms(total) = 0.54517E-02    rms(broyden)= 0.54478E-02
  rms(prec ) = 0.11558E-01
  weight for this iteration     100.00

 eigenvalues of (default mixing * dielectric matrix)
  average eigenvalue GAMMA=   1.6463
  2.9511  2.5550  1.4618  1.0654  1.0654  0.7792

 Free energy of the ion-electron system (eV)
  ---------------------------------------------------
  alpha Z        PSCENC =        -0.28479147
  Ewald energy   TEWEN  =      -558.02282115
  -Hartree energ DENC   =      -308.91397060
  -exchange      EXHF   =         0.00000000
  -V(xc)+E(xc)   XCENC  =       -59.09631235
  PAW double counting   =      1040.68432933     -930.47585158
  entropy T*S    EENTRO =        -0.00000000
  eigenvalues    EBANDS =       -59.51866910
  atomic energy  EATOM  =       857.45430997
  Solvation  Ediel_sol  =         0.00000000
  ---------------------------------------------------
  free energy    TOTEN  =       -18.17377694 eV

  energy without entropy =      -18.17377694  energy(sigma->0) =      -18.17377694


--------------------------------------------------------------------------------------------------------




--------------------------------------- Iteration      1(  12)  ---------------------------------------


    POTLOK:  cpu time    0.0062: real time    0.0064
    SETDIJ:  cpu time    0.0390: real time    0.0390
    EDDIAG:  cpu time    0.0153: real time    0.0154
  RMM-DIIS:  cpu time    0.0024: real time    0.0024
    ORTHCH:  cpu time    0.0010: real time    0.0010
       DOS:  cpu time    0.0001: real time    0.0001
    CHARGE:  cpu time    0.0020: real time    0.0020
    MIXING:  cpu time    0.0002: real time    0.0002
    --------------------------------------------
      LOOP:  cpu time    0.0662: real time    0.0665

 eigenvalue-minimisations  :   128
 total energy-change (2. order) :-0.6674845E-04  (-0.1119601E-03)
 number of electron      15.9999925 magnetization 
 augmentation part       -0.2851839 magnetization 

 Broyden mixing:
  rms(total) = 0.27392E-02    rms(broyden)= 0.27314E-02
  rms(prec ) = 0.47055E-02
  weight for this iteration     100.00

 eigenvalues of (default mixing * dielectric matrix)
  average eigenvalue GAMMA=   1.6346
  3.1316  2.3913  2.3913  0.9657  0.9657  0.7983  0.7983

 Free energy of the ion-electron system (eV)
  ---------------------------------------------------
  alpha Z        PSCENC =        -0.28479147
  Ewald energy   TEWEN  =      -558.02282115
  -Hartree energ DENC   =      -308.89248144
  -exchange      EXHF   =         0.00000000
  -V(xc)+E(xc)   XCENC  =       -59.09659591
  PAW double counting   =      1041.26795263     -931.05527729
  entropy T*S    EENTRO =        -0.00000000
  eigenvalues    EBANDS =       -59.54413904
  atomic energy  EATOM  =       857.45430997
  Solvation  Ediel_sol  =         0.00000000
  ---------------------------------------------------
  free energy    TOTEN  =       -18.17384369 eV

  energy without entropy =      -18.17384369  energy(sigma->0) =      -18.17384369


--------------------------------------------------------------------------------------------------------




--------------------------------------- Iteration      1(  13)  ---------------------------------------


    POTLOK:  cpu time    0.0036: real time    0.0036
    SETDIJ:  cpu time    0.0390: real time    0.0390
    EDDIAG:  cpu time    0.0160: real time    0.0164
  RMM-DIIS:  cpu time    0.0029: real time    0.0029
    ORTHCH:  cpu time    0.0010: real time    0.0010
       DOS:  cpu time    0.0001: real time    0.0001
    CHARGE:  cpu time    0.0020: real time    0.0020
    MIXING:  cpu time    0.0002: real time    0.0002
    --------------------------------------------
      LOOP:  cpu time    0.0648: real time    0.0652

 eigenvalue-minimisations  :   129
 total energy-change (2. order) :-0.1096674E-04  (-0.1280602E-04)
 number of electron      15.9999925 magnetization 
 augmentation part       -0.2850167 magnetization 

 Broyden mixing:
  rms(total) = 0.28678E-02    rms(broyden)= 0.28674E-02
  rms(prec ) = 0.54773E-02
  weight for this iteration     100.00

 eigenvalues of (default mixing * dielectric matrix)
  average eigenvalue GAMMA=   1.6765
  3.1059  2.5290  2.5290  1.2556  1.2556  1.0087  0.9520  0.7760

 Free energy of the ion-electron system (eV)
  ---------------------------------------------------
  alpha Z        PSCENC =        -0.28479147
  Ewald energy   TEWEN  =      -558.02282115
  -Hartree energ DENC   =      -308.88547880
  -exchange      EXHF   =         0.00000000
  -V(xc)+E(xc)   XCENC  =       -59.09801680
  PAW double counting   =      1041.21433233     -931.00117615
  entropy T*S    EENTRO =        -0.00000000
  eigenvalues    EBANDS =       -59.55021259
  atomic energy  EATOM  =       857.45430997
  Solvation  Ediel_sol  =         0.00000000
  ---------------------------------------------------
  free energy    TOTEN  =       -18.17385466 eV

  energy without entropy =      -18.17385466  energy(sigma->0) =      -18.17385466


--------------------------------------------------------------------------------------------------------




--------------------------------------- Iteration      1(  14)  ---------------------------------------


    POTLOK:  cpu time    0.0035: real time    0.0035
    SETDIJ:  cpu time    0.0390: real time    0.0390
    EDDIAG:  cpu time    0.0148: real time    0.0154
  RMM-DIIS:  cpu time    0.0028: real time    0.0028
    ORTHCH:  cpu time    0.0010: real time    0.0010
       DOS:  cpu time    0.0001: real time    0.0001
    CHARGE:  cpu time    0.0020: real time    0.0020
    MIXING:  cpu time    0.0002: real time    0.0002
    --------------------------------------------
      LOOP:  cpu time    0.0634: real time    0.0641

 eigenvalue-minimisations  :   135
 total energy-change (2. order) : 0.8073652E-05  (-0.5967281E-05)
 number of electron      15.9999925 magnetization 
 augmentation part       -0.2853672 magnetization 

 Broyden mixing:
  rms(total) = 0.11327E-02    rms(broyden)= 0.11323E-02
  rms(prec ) = 0.20803E-02
  weight for this iteration     100.00

 eigenvalues of (default mixing * dielectric matrix)
  average eigenvalue GAMMA=   1.7354
  3.3068  3.3068  2.4726  1.4399  1.4399  1.0564  0.7874  0.9043  0.9043

 Free energy of the ion-electron system (eV)
  ---------------------------------------------------
  alpha Z        PSCENC =        -0.28479147
  Ewald energy   TEWEN  =      -558.02282115
  -Hartree energ DENC   =      -308.90143827
  -exchange      EXHF   =         0.00000000
  -V(xc)+E(xc)   XCENC  =       -59.09707131
  PAW double counting   =      1041.50732563     -931.29406972
  entropy T*S    EENTRO =        -0.00000000
  eigenvalues    EBANDS =       -59.53529026
  atomic energy  EATOM  =       857.45430997
  Solvation  Ediel_sol  =         0.00000000
  ---------------------------------------------------
  free energy    TOTEN  =       -18.17384658 eV

  energy without entropy =      -18.17384658  energy(sigma->0) =      -18.17384658


--------------------------------------------------------------------------------------------------------




--------------------------------------- Iteration      1(  15)  ---------------------------------------


    POTLOK:  cpu time    0.0036: real time    0.0036
    SETDIJ:  cpu time    0.0391: real time    0.0391
    EDDIAG:  cpu time    0.0157: real time    0.0157
  RMM-DIIS:  cpu time    0.0028: real time    0.0028
    ORTHCH:  cpu time    0.0010: real time    0.0010
       DOS:  cpu time    0.0001: real time    0.0001
    CHARGE:  cpu time    0.0020: real time    0.0020
    MIXING:  cpu time    0.0003: real time    0.0003
    --------------------------------------------
      LOOP:  cpu time    0.0645: real time    0.0645

 eigenvalue-minimisations  :   129
 total energy-change (2. order) : 0.1184869E-05  (-0.1092538E-05)
 number of electron      15.9999925 magnetization 
 augmentation part       -0.2855689 magnetization 

 Broyden mixing:
  rms(total) = 0.13774E-03    rms(broyden)= 0.13500E-03
  rms(prec ) = 0.20388E-03
  weight for this iteration     100.00

 eigenvalues of (default mixing * dielectric matrix)
  average eigenvalue GAMMA=   1.6446
  3.0492  3.0492  2.3320  1.4613  1.4613  1.3629  0.7874  1.0082  1.0082  0.9259

 Free energy of the ion-electron system (eV)
  ---------------------------------------------------
  alpha Z        PSCENC =        -0.28479147
  Ewald energy   TEWEN  =      -558.02282115
  -Hartree energ DENC   =      -308.90779997
  -exchange      EXHF   =         0.00000000
  -V(xc)+E(xc)   XCENC  =       -59.09678345
  PAW double counting   =      1041.63142690     -931.41790892
  entropy T*S    EENTRO =        -0.00000000
  eigenvalues    EBANDS =       -59.52947732
  atomic energy  EATOM  =       857.45430997
  Solvation  Ediel_sol  =         0.00000000
  ---------------------------------------------------
  free energy    TOTEN  =       -18.17384540 eV

  energy without entropy =      -18.17384540  energy(sigma->0) =      -18.17384540


--------------------------------------------------------------------------------------------------------




--------------------------------------- Iteration      1(  16)  ---------------------------------------


    POTLOK:  cpu time    0.0034: real time    0.0034
    SETDIJ:  cpu time    0.0390: real time    0.0390
    EDDIAG:  cpu time    0.0150: real time    0.0152
  RMM-DIIS:  cpu time    0.0034: real time    0.0034
    ORTHCH:  cpu time    0.0010: real time    0.0010
       DOS:  cpu time    0.0001: real time    0.0001
    CHARGE:  cpu time    0.0020: real time    0.0020
    MIXING:  cpu time    0.0004: real time    0.0004
    --------------------------------------------
      LOOP:  cpu time    0.0642: real time    0.0644

 eigenvalue-minimisations  :   135
 total energy-change (2. order) :-0.2801102E-06  (-0.1594678E-06)
 number of electron      15.9999925 magnetization 
 augmentation part       -0.2856072 magnetization 

 Broyden mixing:
  rms(total) = 0.16058E-03    rms(broyden)= 0.16029E-03
  rms(prec ) = 0.32946E-03
  weight for this iteration     100.00

 eigenvalues of (default mixing * dielectric matrix)
  average eigenvalue GAMMA=   1.7253
  3.2075  3.2075  2.4940  2.4940  1.5147  1.5147  1.0077  1.0077  0.7837  0.8734
  0.8734

 Free energy of the ion-electron system (eV)
  ---------------------------------------------------
  alpha Z        PSCENC =        -0.28479147
  Ewald energy   TEWEN  =      -558.02282115
  -Hartree energ DENC   =      -308.91254767
  -exchange      EXHF   =         0.00000000
  -V(xc)+E(xc)   XCENC  =       -59.09648258
  PAW double counting   =      1041.58847081     -931.37495531
  entropy T*S    EENTRO =        -0.00000000
  eigenvalues    EBANDS =       -59.52502828
  atomic energy  EATOM  =       857.45430997
  Solvation  Ediel_sol  =         0.00000000
  ---------------------------------------------------
  free energy    TOTEN  =       -18.17384568 eV

  energy without entropy =      -18.17384568  energy(sigma->0) =      -18.17384568


--------------------------------------------------------------------------------------------------------




--------------------------------------- Iteration      1(  17)  ---------------------------------------


    POTLOK:  cpu time    0.0034: real time    0.0034
    SETDIJ:  cpu time    0.0390: real time    0.0390
    EDDIAG:  cpu time    0.0155: real time    0.0159
  RMM-DIIS:  cpu time    0.0028: real time    0.0028
    ORTHCH:  cpu time    0.0010: real time    0.0010
       DOS:  cpu time    0.0001: real time    0.0001
    CHARGE:  cpu time    0.0020: real time    0.0020
    MIXING:  cpu time    0.0003: real time    0.0003
    --------------------------------------------
      LOOP:  cpu time    0.0642: real time    0.0646

 eigenvalue-minimisations  :   129
 total energy-change (2. order) :-0.1698194E-06  (-0.6202515E-07)
 number of electron      15.9999925 magnetization 
 augmentation part       -0.2855466 magnetization 

 Broyden mixing:
  rms(total) = 0.16011E-03    rms(broyden)= 0.16005E-03
  rms(prec ) = 0.36808E-03
  weight for this iteration     100.00

 eigenvalues of (default mixing * dielectric matrix)
  average eigenvalue GAMMA=   1.6578
  3.3172  3.1096  2.5318  2.5318  1.4886  1.4886  0.9483  0.9483  1.0039  0.9778
  0.8048  0.7437

 Free energy of the ion-electron system (eV)
  ---------------------------------------------------
  alpha Z        PSCENC =        -0.28479147
  Ewald energy   TEWEN  =      -558.02282115
  -Hartree energ DENC   =      -308.90601818
  -exchange      EXHF   =         0.00000000
  -V(xc)+E(xc)   XCENC  =       -59.09692156
  PAW double counting   =      1041.54306040     -931.32927657
  entropy T*S    EENTRO =        -0.00000000
  eigenvalues    EBANDS =       -59.53138730
  atomic energy  EATOM  =       857.45430997
  Solvation  Ediel_sol  =         0.00000000
  ---------------------------------------------------
  free energy    TOTEN  =       -18.17384585 eV

  energy without entropy =      -18.17384585  energy(sigma->0) =      -18.17384585


--------------------------------------------------------------------------------------------------------




--------------------------------------- Iteration      1(  18)  ---------------------------------------


    POTLOK:  cpu time    0.0034: real time    0.0034
    SETDIJ:  cpu time    0.0390: real time    0.0390
    EDDIAG:  cpu time    0.0152: real time    0.0154
  RMM-DIIS:  cpu time    0.0025: real time    0.0025
    ORTHCH:  cpu time    0.0010: real time    0.0010
       DOS:  cpu time    0.0001: real time    0.0001
    CHARGE:  cpu time    0.0020: real time    0.0020
    MIXING:  cpu time    0.0003: real time    0.0003
    --------------------------------------------
      LOOP:  cpu time    0.0635: real time    0.0637

 eigenvalue-minimisations  :   118
 total energy-change (2. order) : 0.8201937E-07  (-0.9963608E-08)
 number of electron      15.9999925 magnetization 
 augmentation part       -0.2855700 magnetization 

 Broyden mixing:
  rms(total) = 0.43605E-04    rms(broyden)= 0.43582E-04
  rms(prec ) = 0.89980E-04
  weight for this iteration     100.00

 eigenvalues of (default mixing * dielectric matrix)
  average eigenvalue GAMMA=   1.6437
  3.2126  3.2126  2.5442  2.5442  1.4491  1.4491  1.4293  1.0045  1.0045  1.0295
  0.7796  0.8545  0.8545

 Free energy of the ion-electron system (eV)
  ---------------------------------------------------
  alpha Z        PSCENC =        -0.28479147
  Ewald energy   TEWEN  =      -558.02282115
  -Hartree energ DENC   =      -308.90926226
  -exchange      EXHF   =         0.00000000
  -V(xc)+E(xc)   XCENC  =       -59.09669231
  PAW double counting   =      1041.56021997     -931.34645159
  entropy T*S    EENTRO =        -0.00000000
  eigenvalues    EBANDS =       -59.52835693
  atomic energy  EATOM  =       857.45430997
  Solvation  Ediel_sol  =         0.00000000
  ---------------------------------------------------
  free energy    TOTEN  =       -18.17384577 eV

  energy without entropy =      -18.17384577  energy(sigma->0) =      -18.17384577


--------------------------------------------------------------------------------------------------------




--------------------------------------- Iteration      1(  19)  ---------------------------------------


    POTLOK:  cpu time    0.0039: real time    0.0039
    SETDIJ:  cpu time    0.0391: real time    0.0391
    EDDIAG:  cpu time    0.0501: real time    0.0501
  RMM-DIIS:  cpu time    0.0077: real time    0.0077
    ORTHCH:  cpu time    0.0052: real time    0.0052
       DOS:  cpu time    0.0043: real time    0.0043
    --------------------------------------------
      LOOP:  cpu time    0.1102: real time    0.1102

 eigenvalue-minimisations  :   108
 total energy-change (2. order) : 0.3398554E-08  (-0.2875346E-08)
 number of electron      15.9999925 magnetization 
 augmentation part       -0.2855700 magnetization 

 Free energy of the ion-electron system (eV)
  ---------------------------------------------------
  alpha Z        PSCENC =        -0.28479147
  Ewald energy   TEWEN  =      -558.02282115
  -Hartree energ DENC   =      -308.90979811
  -exchange      EXHF   =         0.00000000
  -V(xc)+E(xc)   XCENC  =       -59.09665668
  PAW double counting   =      1041.56191896     -931.34815935
  entropy T*S    EENTRO =        -0.00000000
  eigenvalues    EBANDS =       -59.52784794
  atomic energy  EATOM  =       857.45430997
  Solvation  Ediel_sol  =         0.00000000
  ---------------------------------------------------
  free energy    TOTEN  =       -18.17384576 eV

  energy without entropy =      -18.17384576  energy(sigma->0) =      -18.17384576


--------------------------------------------------------------------------------------------------------




 average (electrostatic) potential at core
  the test charge radii are     1.1212  0.7215  0.9406
  (the norm of the test charge is              1.0000)
       1 -40.5410       2 -40.5410       3 -40.5410       4 -70.7269       5 -93.9829
 
 
 
 E-fermi :   1.7244     XC(G=0):  -8.0658     alpha+bet : -8.9598

 Fermi energy:         1.7244011563

 k-point     1 :       0.0000    0.0000    0.0000
  band No.  band energies     occupation 
      1     -13.5584      2.00000
      2     -13.1713      2.00000
      3      -1.7201      2.00000
      4      -1.7201      2.00000
      5      -1.7201      2.00000
      6       1.2046      2.00000
      7       1.2046      2.00000
      8       1.2046      2.00000
      9       3.3077      0.00000
     10       6.7327      0.00000
     11       6.7327      0.00000
     12      10.7866      0.00000
     13      10.7866      0.00000
     14      11.2605      0.00000
     15      11.2608      0.00000
     16      11.2608      0.00000

 k-point     2 :       0.3333    0.0000    0.0000
  band No.  band energies     occupation 
      1     -13.4772      2.00000
      2     -13.1951      2.00000
      3      -2.1832      2.00000
      4      -1.6565      2.00000
      5      -1.6565      2.00000
      6       0.6096      2.00000
      7       1.1177      2.00000
      8       1.1177      2.00000
      9       4.8629      0.00000
     10       7.0995      0.00000
     11       7.2053      0.00000
     12       9.7706      0.00000
     13       9.7706      0.00000
     14      11.0357      0.00000
     15      11.1982      0.00000
     16      11.1987      0.00000

 k-point     3 :       0.3333    0.3333    0.0000
  band No.  band energies     occupation 
      1     -13.4335      2.00000
      2     -13.1778      2.00000
      3      -2.1846      2.00000
      4      -2.1682      2.00000
      5      -1.6147      2.00000
      6       0.7876      2.00000
      7       0.9598      2.00000
      8       1.1171      2.00000
      9       5.5978      0.00000
     10       6.8599      0.00000
     11       8.0615      0.00000
     12       8.4278      0.00000
     13       9.3411      0.00000
     14       9.5222      0.00000
     15      10.9696      0.00000
     16      12.1174      0.00000

 k-point     4 :       0.3333    0.3333    0.3333
  band No.  band energies     occupation 
      1     -13.4053      2.00000
      2     -13.1492      2.00000
      3      -2.1229      2.00000
      4      -2.0394      2.00000
      5      -2.0394      2.00000
      6       0.7734      2.00000
      7       0.7734      2.00000
      8       0.8548      2.00000
      9       6.6434      0.00000
     10       7.7423      0.00000
     11       8.0473      0.00000
     12       8.0473      0.00000
     13       8.4668      0.00000
     14       8.4668      0.00000
     15      12.2535      0.00000
     16      13.0923      0.00000


--------------------------------------------------------------------------------------------------------


 soft charge-density along one line, spin component           1
         0         1         2         3         4         5         6         7         8         9
 total charge-density along one line
 
 pseudopotential strength for first ion, spin component:           1
  1.434   6.393   0.000  -0.000   0.000
  6.393  28.110   0.000  -0.000   0.000
  0.000   0.000   5.575   0.000  -0.000
 -0.000  -0.000   0.000   5.576   0.000
  0.000   0.000  -0.000   0.000   5.575
 total augmentation occupancy for first ion, spin component:           1
  0.614   0.003   0.000   0.000   0.000
  0.003   0.000   0.000   0.000   0.000
  0.000   0.000   0.012   0.000   0.000
  0.000   0.000   0.000   0.059   0.000
  0.000   0.000   0.000   0.000   0.012


------------------------ aborting loop because EDIFF is reached ----------------------------------------


    CHARGE:  cpu time    0.0030: real time    0.0030
    FORLOC:  cpu time    0.0007: real time    0.0008
    FORNL :  cpu time    0.0074: real time    0.0082
    STRESS:  cpu time    0.0241: real time    0.0249
    FORCOR:  cpu time    0.0087: real time    0.0096
    FORHAR:  cpu time    0.0018: real time    0.0031
    MIXING:  cpu time    0.0006: real time    0.0006
    OFIELD:  cpu time    0.0004: real time    0.0004

  FORCE on cell =-STRESS in cart. coord.  units (eV):
  Direction    XX          YY          ZZ          XY          YZ          ZX
  --------------------------------------------------------------------------------------
  Alpha Z    -0.28479    -0.28479    -0.28479
  Ewald    -186.00766  -186.00766  -186.00766     0.00000    -0.00000    -0.00000
  Hartree   102.96999   102.96999   102.96999    -0.00000    -0.00000    -0.00000
  E(xc)     -63.87571   -63.87571   -63.87571    -0.00000    -0.00000    -0.00000
  Local    -162.35594  -162.35594  -162.35594     0.00000     0.00000    -0.00000
  n-local    65.93874    66.07499    66.51011    -0.04519    -0.00127    -0.00127
  augment   -12.52548   -12.52548   -12.52548    -0.00000     0.00000    -0.00000
  Kinetic   251.15062   254.82173   259.85406    -0.90315     0.10734     0.10734
  Fock        0.00000     0.00000     0.00000     0.00000     0.00000     0.00000
  -------------------------------------------------------------------------------------
  Total      -0.62951    -0.62951    -0.62951     0.00000     0.00000     0.00000
  in kB     -11.09766   -11.09766   -11.09766     0.00000     0.00000     0.00000
  external pressure =      -11.10 kB  Pullay stress =        0.00 kB


 VOLUME and BASIS-vectors are now :
 -----------------------------------------------------------------------------
  energy-cutoff  :      400.00
  volume of cell :       90.88
      direct lattice vectors                 reciprocal lattice vectors
     4.496000000  0.000000000  0.000000000     0.222419929  0.000000000  0.000000000
     0.000000000  4.496000000  0.000000000     0.000000000  0.222419929  0.000000000
     0.000000000  0.000000000  4.496000000     0.000000000  0.000000000  0.222419929

  length of vectors
     4.496000000  4.496000000  4.496000000     0.222419929  0.222419929  0.222419929


 FORCES acting on ions
    electron-ion (+dipol)            ewald-force                    non-local-force                 convergence-correction
 -----------------------------------------------------------------------------------------------
   0.294E-14 0.456E-14 0.192E-12   0.389E-15 -.987E-16 -.219E-15   0.000E+00 0.000E+00 0.000E+00   0.324E-16 0.962E-17 -.152E-16
   0.264E-14 0.184E-14 -.599E-16   0.662E-15 0.682E-17 0.291E-15   0.000E+00 0.000E+00 0.000E+00   -.634E-16 0.554E-17 -.150E-16
   0.277E-14 -.591E-15 0.258E-13   0.231E-15 0.236E-15 0.290E-15   0.000E+00 0.000E+00 0.000E+00   0.592E-16 -.923E-17 -.156E-16
   0.184E-12 0.297E-12 -.123E-11   -.356E-15 0.735E-16 0.363E-15   0.000E+00 0.000E+00 0.000E+00   0.922E-14 -.364E-15 -.648E-15
   -.345E-15 -.602E-15 0.115E-14   -.938E-15 0.271E-15 -.647E-15   0.000E+00 0.000E+00 0.000E+00   -.513E-15 0.365E-15 -.601E-15
 -----------------------------------------------------------------------------------------------
   0.192E-12 0.302E-12 -.101E-11   -.120E-16 0.489E-15 0.775E-16   0.000E+00 0.000E+00 0.000E+00   0.874E-14 0.699E-17 -.129E-14
 
 
 POSITION                                       TOTAL-FORCE (eV/Angst)
 -----------------------------------------------------------------------------------
      2.24800      2.24800      0.00000         0.000000      0.000000      0.000000
      0.00000      2.24800      2.24800         0.000000      0.000000      0.000000
      2.24800      0.00000      2.24800         0.000000      0.000000      0.000000
      2.24800      2.24800      2.24800         0.000000      0.000000      0.000000
      0.00000      0.00000      0.00000         0.000000      0.000000      0.000000
 -----------------------------------------------------------------------------------
    total drift:                                0.000000      0.000000     -0.000000


--------------------------------------------------------------------------------------------------------



  FREE ENERGIE OF THE ION-ELECTRON SYSTEM (eV)
  ---------------------------------------------------
  free  energy   TOTEN  =       -18.17384576 eV

  energy  without entropy=      -18.17384576  energy(sigma->0) =      -18.17384576
 


--------------------------------------------------------------------------------------------------------


    POTLOK:  cpu time    0.0526: real time    0.0527


--------------------------------------------------------------------------------------------------------




--------------------------------------------------------------------------------------------------------


    WAVPRE:  cpu time    0.0022: real time    0.0066
    FEWALD:  cpu time    0.0005: real time    0.0007
    GENKIN:  cpu time    0.0003: real time    0.0003

 real space projection operators:
  total allocation   :        299.71 KBytes
  max/ min on nodes  :         26.55         12.95

    ORTHCH:  cpu time    0.0027: real time    0.0027
     LOOP+:  cpu time    1.6219: real time    1.6665


--------------------------------------- Iteration      2(   1)  ---------------------------------------


    POTLOK:  cpu time    0.0032: real time    0.0045
    SETDIJ:  cpu time    0.0392: real time    0.0392
     EDDAV:  cpu time    0.0529: real time    0.0529
       DOS:  cpu time    0.0007: real time    0.0007
    CHARGE:  cpu time    0.0031: real time    0.0031
    MIXING:  cpu time    0.0001: real time    0.0001
    --------------------------------------------
      LOOP:  cpu time    0.0991: real time    0.1004

 eigenvalue-minimisations  :   136
 total energy-change (2. order) :-0.5036991E-01  (-0.5807851E-01)
 number of electron      15.9999928 magnetization 
 augmentation part       -0.2908800 magnetization 

  free energy =  -0.182242156814E+02  energy without entropy=  -0.182242156814E+02


--------------------------------------------------------------------------------------------------------




--------------------------------------- Iteration      2(   2)  ---------------------------------------


    POTLOK:  cpu time    0.0081: real time    0.0081
    SETDIJ:  cpu time    0.0390: real time    0.0390
    EDDIAG:  cpu time    0.0154: real time    0.0161
  RMM-DIIS:  cpu time    0.0030: real time    0.0030
    ORTHCH:  cpu time    0.0010: real time    0.0010
       DOS:  cpu time    0.0001: real time    0.0001
    CHARGE:  cpu time    0.0021: real time    0.0021
    MIXING:  cpu time    0.0002: real time    0.0002
    --------------------------------------------
      LOOP:  cpu time    0.0689: real time    0.0696

 eigenvalue-minimisations  :   128
 total energy-change (2. order) : 0.3865068E-01  (-0.1580392E-01)
 number of electron      15.9999926 magnetization 
 augmentation part       -0.2722791 magnetization 

 eigenvalues of (default mixing * dielectric matrix)
  average eigenvalue GAMMA=   0.9075
  0.9075

  free energy =  -0.181855649987E+02  energy without entropy=  -0.181855649987E+02


--------------------------------------------------------------------------------------------------------




--------------------------------------- Iteration      2(   3)  ---------------------------------------


    POTLOK:  cpu time    0.0032: real time    0.0032
    SETDIJ:  cpu time    0.0391: real time    0.0391
    EDDIAG:  cpu time    0.0159: real time    0.0159
  RMM-DIIS:  cpu time    0.0027: real time    0.0027
    ORTHCH:  cpu time    0.0010: real time    0.0010
       DOS:  cpu time    0.0001: real time    0.0001
    CHARGE:  cpu time    0.0020: real time    0.0020
    MIXING:  cpu time    0.0002: real time    0.0002
    --------------------------------------------
      LOOP:  cpu time    0.0642: real time    0.0642

 eigenvalue-minimisations  :   128
 total energy-change (2. order) : 0.4041397E-02  (-0.1380765E-02)
 number of electron      15.9999926 magnetization 
 augmentation part       -0.2784704 magnetization 

 eigenvalues of (default mixing * dielectric matrix)
  average eigenvalue GAMMA=   0.9300
  0.9300  0.9300

  free energy =  -0.181815236014E+02  energy without entropy=  -0.181815236014E+02


--------------------------------------------------------------------------------------------------------




--------------------------------------- Iteration      2(   4)  ---------------------------------------


    POTLOK:  cpu time    0.0033: real time    0.0033
    SETDIJ:  cpu time    0.0389: real time    0.0389
    EDDIAG:  cpu time    0.0150: real time    0.0152
  RMM-DIIS:  cpu time    0.0025: real time    0.0025
    ORTHCH:  cpu time    0.0010: real time    0.0010
       DOS:  cpu time    0.0001: real time    0.0001
    CHARGE:  cpu time    0.0020: real time    0.0020
    MIXING:  cpu time    0.0002: real time    0.0002
    --------------------------------------------
      LOOP:  cpu time    0.0629: real time    0.0632

 eigenvalue-minimisations  :   128
 total energy-change (2. order) :-0.3709570E-04  (-0.3701086E-03)
 number of electron      15.9999926 magnetization 
 augmentation part       -0.2817436 magnetization 

 eigenvalues of (default mixing * dielectric matrix)
  average eigenvalue GAMMA=   1.4363
  0.9266  1.6911  1.6911

  free energy =  -0.181815606971E+02  energy without entropy=  -0.181815606971E+02


--------------------------------------------------------------------------------------------------------




--------------------------------------- Iteration      2(   5)  ---------------------------------------


    POTLOK:  cpu time    0.0032: real time    0.0032
    SETDIJ:  cpu time    0.0390: real time    0.0390
    EDDIAG:  cpu time    0.0157: real time    0.0157
  RMM-DIIS:  cpu time    0.0028: real time    0.0028
    ORTHCH:  cpu time    0.0010: real time    0.0010
       DOS:  cpu time    0.0001: real time    0.0001
    CHARGE:  cpu time    0.0020: real time    0.0020
    MIXING:  cpu time    0.0002: real time    0.0002
    --------------------------------------------
      LOOP:  cpu time    0.0641: real time    0.0641

 eigenvalue-minimisations  :   130
 total energy-change (2. order) :-0.4308146E-04  (-0.6886034E-04)
 number of electron      15.9999926 magnetization 
 augmentation part       -0.2810912 magnetization 

 eigenvalues of (default mixing * dielectric matrix)
  average eigenvalue GAMMA=   1.4950
  2.6038  0.9570  0.9570  1.4624

  free energy =  -0.181816037786E+02  energy without entropy=  -0.181816037786E+02


--------------------------------------------------------------------------------------------------------




--------------------------------------- Iteration      2(   6)  ---------------------------------------


    POTLOK:  cpu time    0.0035: real time    0.0035
    SETDIJ:  cpu time    0.0390: real time    0.0390
    EDDIAG:  cpu time    0.0153: real time    0.0153
  RMM-DIIS:  cpu time    0.0027: real time    0.0027
    ORTHCH:  cpu time    0.0010: real time    0.0010
       DOS:  cpu time    0.0001: real time    0.0001
    CHARGE:  cpu time    0.0021: real time    0.0021
    MIXING:  cpu time    0.0002: real time    0.0002
    --------------------------------------------
      LOOP:  cpu time    0.0639: real time    0.0639

 eigenvalue-minimisations  :   131
 total energy-change (2. order) : 0.8783654E-05  (-0.1636006E-04)
 number of electron      15.9999926 magnetization 
 augmentation part       -0.2819980 magnetization 

 eigenvalues of (default mixing * dielectric matrix)
  average eigenvalue GAMMA=   1.9632
  4.2352  2.4439  0.8995  0.8995  1.3380

  free energy =  -0.181815949949E+02  energy without entropy=  -0.181815949949E+02


--------------------------------------------------------------------------------------------------------




--------------------------------------- Iteration      2(   7)  ---------------------------------------


    POTLOK:  cpu time    0.0034: real time    0.0034
    SETDIJ:  cpu time    0.0393: real time    0.0393
    EDDIAG:  cpu time    0.0154: real time    0.0158
  RMM-DIIS:  cpu time    0.0028: real time    0.0028
    ORTHCH:  cpu time    0.0009: real time    0.0009
       DOS:  cpu time    0.0001: real time    0.0001
    CHARGE:  cpu time    0.0020: real time    0.0020
    MIXING:  cpu time    0.0002: real time    0.0002
    --------------------------------------------
      LOOP:  cpu time    0.0641: real time    0.0645

 eigenvalue-minimisations  :   130
 total energy-change (2. order) :-0.5374026E-05  (-0.3378741E-05)
 number of electron      15.9999926 magnetization 
 augmentation part       -0.2822918 magnetization 

 eigenvalues of (default mixing * dielectric matrix)
  average eigenvalue GAMMA=   1.5657
  2.6334  2.6334  1.3563  0.9429  0.9429  0.8855

  free energy =  -0.181816003689E+02  energy without entropy=  -0.181816003689E+02


--------------------------------------------------------------------------------------------------------




--------------------------------------- Iteration      2(   8)  ---------------------------------------


    POTLOK:  cpu time    0.0033: real time    0.0033
    SETDIJ:  cpu time    0.0394: real time    0.0395
    EDDIAG:  cpu time    0.0150: real time    0.0154
  RMM-DIIS:  cpu time    0.0027: real time    0.0027
    ORTHCH:  cpu time    0.0010: real time    0.0010
       DOS:  cpu time    0.0001: real time    0.0001
    CHARGE:  cpu time    0.0020: real time    0.0020
    MIXING:  cpu time    0.0002: real time    0.0002
    --------------------------------------------
      LOOP:  cpu time    0.0637: real time    0.0641

 eigenvalue-minimisations  :   134
 total energy-change (2. order) : 0.2153370E-05  (-0.1041797E-05)
 number of electron      15.9999926 magnetization 
 augmentation part       -0.2821411 magnetization 

 eigenvalues of (default mixing * dielectric matrix)
  average eigenvalue GAMMA=   1.3441
  2.6316  2.6316  1.3567  0.9431  0.9431  0.8858  0.0167

  free energy =  -0.181815982156E+02  energy without entropy=  -0.181815982156E+02


--------------------------------------------------------------------------------------------------------




--------------------------------------- Iteration      2(   9)  ---------------------------------------


    POTLOK:  cpu time    0.0032: real time    0.0032
    SETDIJ:  cpu time    0.0393: real time    0.0393
    EDDIAG:  cpu time    0.0159: real time    0.0159
  RMM-DIIS:  cpu time    0.0030: real time    0.0030
    ORTHCH:  cpu time    0.0010: real time    0.0010
       DOS:  cpu time    0.0001: real time    0.0001
    CHARGE:  cpu time    0.0020: real time    0.0020
    MIXING:  cpu time    0.0002: real time    0.0002
    --------------------------------------------
      LOOP:  cpu time    0.0648: real time    0.0648

 eigenvalue-minimisations  :   137
 total energy-change (2. order) :-0.3459155E-06  (-0.2532633E-06)
 number of electron      15.9999926 magnetization 
 augmentation part       -0.2821245 magnetization 

 eigenvalues of (default mixing * dielectric matrix)
  average eigenvalue GAMMA=   1.2836
  2.6033  2.6033  1.3604  0.9457  0.9457  0.8886  0.6382  0.2837

  free energy =  -0.181815985615E+02  energy without entropy=  -0.181815985615E+02


--------------------------------------------------------------------------------------------------------




--------------------------------------- Iteration      2(  10)  ---------------------------------------


    POTLOK:  cpu time    0.0031: real time    0.0031
    SETDIJ:  cpu time    0.0392: real time    0.0392
    EDDIAG:  cpu time    0.0150: real time    0.0152
  RMM-DIIS:  cpu time    0.0026: real time    0.0026
    ORTHCH:  cpu time    0.0010: real time    0.0010
       DOS:  cpu time    0.0001: real time    0.0001
    CHARGE:  cpu time    0.0020: real time    0.0020
    MIXING:  cpu time    0.0003: real time    0.0003
    --------------------------------------------
      LOOP:  cpu time    0.0632: real time    0.0634

 eigenvalue-minimisations  :   119
 total energy-change (2. order) :-0.3661785E-07  (-0.3663668E-07)
 number of electron      15.9999926 magnetization 
 augmentation part       -0.2821261 magnetization 

 eigenvalues of (default mixing * dielectric matrix)
  average eigenvalue GAMMA=   1.3132
  2.8523  2.5653  0.8770  0.8770  1.3285  0.9337  0.9337  0.8615  0.5898

  free energy =  -0.181815985981E+02  energy without entropy=  -0.181815985981E+02


--------------------------------------------------------------------------------------------------------




--------------------------------------- Iteration      2(  11)  ---------------------------------------


    POTLOK:  cpu time    0.0032: real time    0.0032
    SETDIJ:  cpu time    0.0393: real time    0.0393
    EDDIAG:  cpu time    0.0155: real time    0.0158
  RMM-DIIS:  cpu time    0.0027: real time    0.0027
    ORTHCH:  cpu time    0.0010: real time    0.0010
       DOS:  cpu time    0.0001: real time    0.0001
    CHARGE:  cpu time    0.0020: real time    0.0020
    MIXING:  cpu time    0.0003: real time    0.0002
    --------------------------------------------
      LOOP:  cpu time    0.0640: real time    0.0643

 eigenvalue-minimisations  :   128
 total energy-change (2. order) :-0.1380764E-06  (-0.1328697E-07)
 number of electron      15.9999926 magnetization 
 augmentation part       -0.2821289 magnetization 

[...]
    MIXING:  cpu time    0.0002: real time    0.0002
    --------------------------------------------
      LOOP:  cpu time    0.0625: real time    0.0668

 eigenvalue-minimisations  :   133
 total energy-change (2. order) : 0.4383962E-05  (-0.9110529E-05)
 number of electron      15.9999929 magnetization 
 augmentation part       -0.2810253 magnetization 

 eigenvalues of (default mixing * dielectric matrix)
  average eigenvalue GAMMA=   1.4936
  2.6250  0.9552  0.9552  1.4390

  free energy =  -0.181822428162E+02  energy without entropy=  -0.181822428162E+02


--------------------------------------------------------------------------------------------------------




--------------------------------------- Iteration      5(   6)  ---------------------------------------


    POTLOK:  cpu time    0.0030: real time    0.0030
    SETDIJ:  cpu time    0.0392: real time    0.0392
    EDDIAG:  cpu time    0.0148: real time    0.0156
  RMM-DIIS:  cpu time    0.0026: real time    0.0026
    ORTHCH:  cpu time    0.0010: real time    0.0010
       DOS:  cpu time    0.0001: real time    0.0001
    CHARGE:  cpu time    0.0020: real time    0.0020
    MIXING:  cpu time    0.0002: real time    0.0002
    --------------------------------------------
      LOOP:  cpu time    0.0629: real time    0.0637

 eigenvalue-minimisations  :   131
 total energy-change (2. order) : 0.1560929E-05  (-0.2326610E-05)
 number of electron      15.9999929 magnetization 
 augmentation part       -0.2807369 magnetization 

 eigenvalues of (default mixing * dielectric matrix)
  average eigenvalue GAMMA=   1.9637
  4.2769  2.3998  1.3178  0.9121  0.9121

  free energy =  -0.181822412553E+02  energy without entropy=  -0.181822412553E+02


--------------------------------------------------------------------------------------------------------




--------------------------------------- Iteration      5(   7)  ---------------------------------------


    POTLOK:  cpu time    0.0032: real time    0.0032
    SETDIJ:  cpu time    0.0392: real time    0.0392
    EDDIAG:  cpu time    0.0157: real time    0.0157
  RMM-DIIS:  cpu time    0.0029: real time    0.0029
    ORTHCH:  cpu time    0.0010: real time    0.0010
       DOS:  cpu time    0.0001: real time    0.0001
    CHARGE:  cpu time    0.0021: real time    0.0021
    MIXING:  cpu time    0.0002: real time    0.0002
    --------------------------------------------
      LOOP:  cpu time    0.0645: real time    0.0645

 eigenvalue-minimisations  :   130
 total energy-change (2. order) :-0.1184803E-06  (-0.4348668E-06)
 number of electron      15.9999929 magnetization 
 augmentation part       -0.2806508 magnetization 

 eigenvalues of (default mixing * dielectric matrix)
  average eigenvalue GAMMA=   1.5964
  2.6998  2.6998  1.3601  0.9465  0.9465  0.9258

  free energy =  -0.181822413738E+02  energy without entropy=  -0.181822413738E+02


--------------------------------------------------------------------------------------------------------




--------------------------------------- Iteration      5(   8)  ---------------------------------------


    POTLOK:  cpu time    0.0033: real time    0.0033
    SETDIJ:  cpu time    0.0391: real time    0.0392
    EDDIAG:  cpu time    0.0150: real time    0.0152
  RMM-DIIS:  cpu time    0.0029: real time    0.0029
    ORTHCH:  cpu time    0.0010: real time    0.0010
       DOS:  cpu time    0.0001: real time    0.0001
    CHARGE:  cpu time    0.0020: real time    0.0020
    MIXING:  cpu time    0.0002: real time    0.0002
    --------------------------------------------
      LOOP:  cpu time    0.0636: real time    0.0638

 eigenvalue-minimisations  :   135
 total energy-change (2. order) :-0.2299978E-06  (-0.1389700E-06)
 number of electron      15.9999929 magnetization 
 augmentation part       -0.2806747 magnetization 

 eigenvalues of (default mixing * dielectric matrix)
  average eigenvalue GAMMA=   1.4319
  2.7715  2.7715  1.3462  0.9234  0.9427  0.9427  0.3253

  free energy =  -0.181822416038E+02  energy without entropy=  -0.181822416038E+02


--------------------------------------------------------------------------------------------------------




--------------------------------------- Iteration      5(   9)  ---------------------------------------


    POTLOK:  cpu time    0.0032: real time    0.0032
    SETDIJ:  cpu time    0.0390: real time    0.0392
    EDDIAG:  cpu time    0.0150: real time    0.0158
  RMM-DIIS:  cpu time    0.0027: real time    0.0027
    ORTHCH:  cpu time    0.0010: real time    0.0010
       DOS:  cpu time    0.0001: real time    0.0001
    CHARGE:  cpu time    0.0021: real time    0.0021
    MIXING:  cpu time    0.0002: real time    0.0002
    --------------------------------------------
      LOOP:  cpu time    0.0634: real time    0.0643

 eigenvalue-minimisations  :   123
 total energy-change (2. order) : 0.7144092E-07  (-0.1455559E-07)
 number of electron      15.9999929 magnetization 
 augmentation part       -0.2806780 magnetization 

 eigenvalues of (default mixing * dielectric matrix)
  average eigenvalue GAMMA=   1.5492
  2.8945  2.8945  1.2694  1.2694  1.3661  0.9226  0.9226  0.8544

  free energy =  -0.181822415323E+02  energy without entropy=  -0.181822415323E+02


--------------------------------------------------------------------------------------------------------




--------------------------------------- Iteration      5(  10)  ---------------------------------------


    POTLOK:  cpu time    0.0029: real time    0.0029
    SETDIJ:  cpu time    0.0392: real time    0.0392
    EDDIAG:  cpu time    0.0212: real time    0.0216
  RMM-DIIS:  cpu time    0.0054: real time    0.0054
    ORTHCH:  cpu time    0.0034: real time    0.0034
       DOS:  cpu time    0.0004: real time    0.0004
    CHARGE:  cpu time    0.0039: real time    0.0039
    MIXING:  cpu time    0.0011: real time    0.0011
    --------------------------------------------
      LOOP:  cpu time    0.0776: real time    0.0780

 eigenvalue-minimisations  :    99
 total energy-change (2. order) : 0.4490664E-07  (-0.2411100E-08)
 number of electron      15.9999929 magnetization 
 augmentation part       -0.2806759 magnetization 

 eigenvalues of (default mixing * dielectric matrix)
  average eigenvalue GAMMA=   1.6939
  3.8961  2.6175  2.6175  1.1284  1.1284  0.9123  0.9123  1.0162  1.0162

  free energy =  -0.181822414874E+02  energy without entropy=  -0.181822414874E+02


--------------------------------------------------------------------------------------------------------




--------------------------------------- Iteration      5(  11)  ---------------------------------------


    POTLOK:  cpu time    0.0057: real time    0.0057
    SETDIJ:  cpu time    0.0499: real time    0.0499
    EDDIAG:  cpu time    0.0159: real time    0.0159
  RMM-DIIS:  cpu time    0.0022: real time    0.0022
    ORTHCH:  cpu time    0.0009: real time    0.0009
       DOS:  cpu time    0.0001: real time    0.0001
    CHARGE:  cpu time    0.0020: real time    0.0020
    MIXING:  cpu time    0.0003: real time    0.0003
    --------------------------------------------
      LOOP:  cpu time    0.0771: real time    0.0771

 eigenvalue-minimisations  :    95
 total energy-change (2. order) : 0.5756965E-07  (-0.6758105E-09)
 number of electron      15.9999929 magnetization 
 augmentation part       -0.2806794 magnetization 

 eigenvalues of (default mixing * dielectric matrix)
  average eigenvalue GAMMA=   1.5910
  3.1940  2.5992  2.5992  1.2618  1.2618  1.3095  0.9838  0.9838  0.8586  0.8586

  free energy =  -0.181822414298E+02  energy without entropy=  -0.181822414298E+02


--------------------------------------------------------------------------------------------------------




--------------------------------------- Iteration      5(  12)  ---------------------------------------


    POTLOK:  cpu time    0.0033: real time    0.0033
    SETDIJ:  cpu time    0.0392: real time    0.0392
    EDDIAG:  cpu time    0.0149: real time    0.0152
  RMM-DIIS:  cpu time    0.0018: real time    0.0018
    ORTHCH:  cpu time    0.0010: real time    0.0010
       DOS:  cpu time    0.0001: real time    0.0001
    CHARGE:  cpu time    0.0020: real time    0.0020
    MIXING:  cpu time    0.0003: real time    0.0003
    --------------------------------------------
      LOOP:  cpu time    0.0626: real time    0.0628

 eigenvalue-minimisations  :    88
 total energy-change (2. order) :-0.1669059E-07  (-0.1900896E-09)
 number of electron      15.9999929 magnetization 
 augmentation part       -0.2806784 magnetization 

 eigenvalues of (default mixing * dielectric matrix)
  average eigenvalue GAMMA=   1.5175
  3.4442  2.5977  2.5977  1.3213  1.3213  1.3512  0.9734  0.9734  0.8820  0.8058
  0.4246

  free energy =  -0.181822414465E+02  energy without entropy=  -0.181822414465E+02


--------------------------------------------------------------------------------------------------------




--------------------------------------- Iteration      5(  13)  ---------------------------------------


    POTLOK:  cpu time    0.0029: real time    0.0029
    SETDIJ:  cpu time    0.0392: real time    0.0392
    EDDIAG:  cpu time    0.0157: real time    0.0157
  RMM-DIIS:  cpu time    0.0018: real time    0.0018
    ORTHCH:  cpu time    0.0012: real time    0.0012
       DOS:  cpu time    0.0001: real time    0.0001
    --------------------------------------------
      LOOP:  cpu time    0.0608: real time    0.0608

 eigenvalue-minimisations  :    68
 total energy-change (2. order) : 0.5134098E-09  (-0.4137938E-10)
 number of electron      15.9999929 magnetization 
 augmentation part       -0.2806784 magnetization 

  free energy =  -0.181822414460E+02  energy without entropy=  -0.181822414460E+02


--------------------------------------------------------------------------------------------------------




 average (electrostatic) potential at core
  the test charge radii are     1.1212  0.7215  0.9406
  (the norm of the test charge is              1.0000)
       1 -40.3448       2 -40.3448       3 -40.3448       4 -70.5419       5 -93.8780
 
 
 
 E-fermi :   1.8137     XC(G=0):  -8.1670     alpha+bet : -9.1947

 Fermi energy:         1.8136704771

 k-point     1 :       0.0000    0.0000    0.0000
  band No.  band energies     occupation 
      1     -13.4743      2.00000
      2     -13.0480      2.00000
      3      -1.6227      2.00000
      4      -1.6227      2.00000
      5      -1.6227      2.00000
      6       1.3537      2.00000
      7       1.3537      2.00000
      8       1.3537      2.00000
      9       3.5283      0.00000
     10       6.8920      0.00000
     11       6.8920      0.00000
     12      10.9733      0.00000
     13      10.9733      0.00000
     14      10.9733      0.00000
     15      11.5929      0.00000
     16      11.5929      0.00000

 k-point     2 :       0.3333    0.0000    0.0000
  band No.  band energies     occupation 
      1     -13.3892      2.00000
      2     -13.0705      2.00000
      3      -2.1040      2.00000
      4      -1.5569      2.00000
      5      -1.5569      2.00000
      6       0.7421      2.00000
      7       1.2611      2.00000
      8       1.2611      2.00000
      9       5.1036      0.00000
     10       7.3505      0.00000
     11       7.3647      0.00000
     12       9.9920      0.00000
     13       9.9920      0.00000
     14      11.3080      0.00000
     15      11.4938      0.00000
     16      11.4939      0.00000

 k-point     3 :       0.3333    0.3333    0.0000
  band No.  band energies     occupation 
      1     -13.3431      2.00000
      2     -13.0503      2.00000
      3      -2.1074      2.00000
      4      -2.0890      2.00000
      5      -1.5138      2.00000
      6       0.9227      2.00000
      7       1.1006      2.00000
      8       1.2590      2.00000
      9       5.8330      0.00000
     10       7.0847      0.00000
     11       8.3238      0.00000
     12       8.6590      0.00000
     13       9.5410      0.00000
     14       9.7413      0.00000
     15      11.2501      0.00000
     16      12.3913      0.00000

 k-point     4 :       0.3333    0.3333    0.3333
  band No.  band energies     occupation 
      1     -13.3130      2.00000
      2     -13.0185      2.00000
      3      -2.0427      2.00000
      4      -1.9561      2.00000
      5      -1.9561      2.00000
      6       0.9037      2.00000
      7       0.9037      2.00000
      8       0.9906      2.00000
      9       6.9056      0.00000
     10       7.9705      0.00000
     11       8.2911      0.00000
     12       8.2911      0.00000
     13       8.6959      0.00000
     14       8.6959      0.00000
     15      12.5841      0.00000
     16      13.3570      0.00000


--------------------------------------------------------------------------------------------------------


 soft charge-density along one line, spin component           1
         0         1         2         3         4         5         6         7         8         9
 total charge-density along one line
 
 pseudopotential strength for first ion, spin component:           1
  1.435   6.393   0.000  -0.000   0.000
  6.393  28.093   0.000  -0.000   0.000
  0.000   0.000   5.607   0.000  -0.000
 -0.000  -0.000   0.000   5.608  -0.000
  0.000   0.000  -0.000  -0.000   5.607
 total augmentation occupancy for first ion, spin component:           1
  0.631   0.003   0.000   0.000   0.000
  0.003   0.000   0.000   0.000   0.000
  0.000   0.000   0.013  -0.000   0.000
  0.000   0.000   0.000   0.062  -0.000
  0.000   0.000   0.000  -0.000   0.013


------------------------ aborting loop because EDIFF is reached ----------------------------------------


    CHARGE:  cpu time    0.0020: real time    0.0020
    FORLOC:  cpu time    0.0000: real time    0.0000
    FORNL :  cpu time    0.0021: real time    0.0021
    STRESS:  cpu time    0.0060: real time    0.0060
    FORCOR:  cpu time    0.0028: real time    0.0028
    FORHAR:  cpu time    0.0005: real time    0.0005
    MIXING:  cpu time    0.0003: real time    0.0003
    OFIELD:  cpu time    0.0000: real time    0.0000

  FORCE on cell =-STRESS in cart. coord.  units (eV):
  Direction    XX          YY          ZZ          XY          YZ          ZX
  --------------------------------------------------------------------------------------
  Alpha Z    -0.29226    -0.29226    -0.29226
  Ewald    -187.61935  -187.61935  -187.61935    -0.00000     0.00000    -0.00000
  Hartree   101.97504   101.97504   101.97504    -0.00000    -0.00000    -0.00000
  E(xc)     -64.05119   -64.05119   -64.05119     0.00000    -0.00000     0.00000
  Local    -159.80567  -159.80567  -159.80567     0.00000     0.00000     0.00000
  n-local    66.30298    66.46028    66.93454    -0.05103    -0.00199    -0.00199
  augment   -12.48087   -12.48087   -12.48087     0.00000     0.00000     0.00000
  Kinetic   251.52424   255.24084   260.35960    -0.90913     0.11651     0.11651
  Fock        0.00000     0.00000     0.00000     0.00000     0.00000     0.00000
  -------------------------------------------------------------------------------------
  Total      -0.00013    -0.00013    -0.00013     0.00000    -0.00000    -0.00000
  in kB      -0.00240    -0.00240    -0.00240     0.00000    -0.00000    -0.00000
  external pressure =       -0.00 kB  Pullay stress =        0.00 kB


 VOLUME and BASIS-vectors are now :
 -----------------------------------------------------------------------------
  energy-cutoff  :      400.00
  volume of cell :       88.56
      direct lattice vectors                 reciprocal lattice vectors
     4.457378445 -0.000000000  0.000000000     0.224347116 -0.000000000  0.000000000
     0.000000000  4.457378445 -0.000000000     0.000000000  0.224347116  0.000000000
    -0.000000000  0.000000000  4.457378445    -0.000000000  0.000000000  0.224347116

  length of vectors
     4.457378445  4.457378445  4.457378445     0.224347116  0.224347116  0.224347116


 FORCES acting on ions
    electron-ion (+dipol)            ewald-force                    non-local-force                 convergence-correction
 -----------------------------------------------------------------------------------------------
   0.395E-14 0.527E-14 0.196E-12   -.185E-15 0.139E-15 0.680E-15   -.189E-28 0.000E+00 0.000E+00   0.661E-16 -.644E-17 0.181E-16
   -.173E-16 0.139E-14 0.778E-15   -.480E-15 0.416E-15 0.254E-15   -.112E-27 0.000E+00 0.000E+00   -.464E-16 -.183E-16 -.518E-16
   0.147E-14 -.807E-15 0.270E-13   0.892E-16 -.432E-15 0.255E-15   0.948E-28 0.000E+00 0.000E+00   0.827E-16 0.159E-16 -.515E-16
   0.183E-12 0.300E-12 -.124E-11   0.150E-14 0.500E-15 -.293E-15   0.247E-29 0.000E+00 0.000E+00   0.420E-14 -.304E-14 -.542E-14
   0.915E-16 -.251E-15 -.680E-15   -.112E-14 -.637E-15 -.884E-15   0.782E-27 0.000E+00 0.000E+00   -.641E-14 -.811E-15 -.146E-14
 -----------------------------------------------------------------------------------------------
   0.188E-12 0.306E-12 -.102E-11   -.192E-15 -.139E-16 0.127E-16   0.749E-27 0.000E+00 0.000E+00   -.212E-14 -.386E-14 -.696E-14
 
 
 POSITION                                       TOTAL-FORCE (eV/Angst)
 -----------------------------------------------------------------------------------
      2.22869      2.22869     -0.00000         0.000000      0.000000      0.000000
     -0.00000      2.22869      2.22869         0.000000      0.000000      0.000000
      2.22869     -0.00000      2.22869         0.000000      0.000000      0.000000
      2.22869      2.22869      2.22869        -0.000000      0.000000      0.000000
      0.00000      0.00000      0.00000         0.000000      0.000000      0.000000
 -----------------------------------------------------------------------------------
    total drift:                                0.000000      0.000000     -0.000000


--------------------------------------------------------------------------------------------------------



  FREE ENERGIE OF THE ION-ELECTRON SYSTEM (eV)
  ---------------------------------------------------
  free  energy   TOTEN  =       -18.18224145 eV

  energy  without entropy=      -18.18224145  energy(sigma->0) =      -18.18224145
 
 d Force = 0.0000000E+00[ 0.000E+00, 0.000E+00]  d Energy = 0.5196920E-03-0.520E-03
 d Force = 0.0000000E+00[ 0.000E+00, 0.000E+00]  d Ewald  =-0.1320058E+01 0.132E+01


--------------------------------------------------------------------------------------------------------


    POTLOK:  cpu time    0.0421: real time    0.0421


--------------------------------------------------------------------------------------------------------




--------------------------------------------------------------------------------------------------------


  
 reached required accuracy - stopping structural energy minimisation
     LOOP+:  cpu time    0.9735: real time    0.9901
    4ORBIT:  cpu time    0.0000: real time    0.0000

 total amount of memory used by VASP MPI-rank0    30527. kBytes
=======================================================================

   base      :      30000. kBytes
   nonlr-proj:        176. kBytes
   fftplans  :        134. kBytes
   grid      :        198. kBytes
   one-center:          3. kBytes
   wavefun   :         16. kBytes
 
  
  
 General timing and accounting informations for this job:
 ========================================================
  
                  Total CPU time used (sec):        6.377
                            User time (sec):        5.843
                          System time (sec):        0.534
                         Elapsed time (sec):        6.842
  
                   Maximum memory used (kb):       92468.
                   Average memory used (kb):          N/A
  
                          Minor page faults:        52659
                          Major page faults:            0
                 Voluntary context switches:          843
