unknown system                          
           1
     4.496000    0.000000    0.000000
     0.000000    4.496000    0.000000
     0.000000    0.000000    4.496000
   Na   O    Cl
     3     1     1
Direct configuration=     1
   0.50000000  0.50000000  0.00000000
   0.00000000  0.50000000  0.50000000
   0.50000000  0.00000000  0.50000000
   0.50000000  0.50000000  0.50000000
   0.00000000  0.00000000  0.00000000
unknown system                          
           1
     4.468692   -0.000000    0.000000
     0.000000    4.468692   -0.000000
    -0.000000    0.000000    4.468692
   Na   O    Cl
     3     1     1
Direct configuration=     2
   0.50000000  0.50000000  0.00000000
   0.00000000  0.50000000  0.50000000
   0.50000000  0.00000000  0.50000000
   0.50000000  0.50000000  0.50000000
   0.00000000  0.00000000  0.00000000
unknown system                          
           1
     4.461444   -0.000000    0.000000
     0.000000    4.461444   -0.000000
    -0.000000    0.000000    4.461444
   Na   O    Cl
     3     1     1
Direct configuration=     3
   0.50000000  0.50000000  0.00000000
   0.00000000  0.50000000  0.50000000
   0.50000000  0.00000000  0.50000000
   0.50000000  0.50000000  0.50000000
   0.00000000  0.00000000  0.00000000
unknown system                          
           1
     4.446949   -0.000000    0.000000
     0.000000    4.446949   -0.000000
    -0.000000    0.000000    4.446949
   Na   O    Cl
     3     1     1
Direct configuration=     4
   0.50000000  0.50000000  0.00000000
   0.00000000  0.50000000  0.50000000
   0.50000000  0.00000000  0.50000000
   0.50000000  0.50000000  0.50000000
   0.00000000  0.00000000  0.00000000
unknown system                          
           1
     4.457378   -0.000000    0.000000
     0.000000    4.457378   -0.000000
    -0.000000    0.000000    4.457378
   Na   O    Cl
     3     1     1
Direct configuration=     5
   0.50000000  0.50000000  0.00000000
   0.00000000  0.50000000  0.50000000
   0.50000000  0.00000000  0.50000000
   0.50000000  0.50000000  0.50000000
   0.00000000  0.00000000  0.00000000
