  20  20   0   0
  0.3235678E+02  0.4457379E-09  0.6303685E-09  0.3257139E-08  0.5000000E-15
  1.000000000000000E-004
  CAR 
 unknown system                          
      8.14871529    -18.79012781  301     -0.86894461      1.00000000
    -18.790  0.0000E+00  0.0000E+00
    -18.700  0.0000E+00  0.0000E+00
    -18.611  0.0000E+00  0.0000E+00
    -18.521  0.0000E+00  0.0000E+00
    -18.431  0.0000E+00  0.0000E+00
    -18.341  0.0000E+00  0.0000E+00
    -18.251  0.0000E+00  0.0000E+00
    -18.162  0.0000E+00  0.0000E+00
    -18.072  0.1040E-11  0.9339E-13
    -17.982  0.5091E-08  0.4573E-09
    -17.892  0.5322E-05  0.4783E-06
    -17.802  0.1248E-02  0.1125E-03
    -17.713  0.7195E-01  0.6573E-02
    -17.623  0.1194E+01  0.1138E+00
    -17.533  0.6974E+01  0.7400E+00
    -17.443  0.1641E+02  0.2213E+01
    -17.353  0.1495E+02  0.3556E+01
    -17.264  0.4545E+01  0.3964E+01
    -17.174  0.3951E+00  0.3999E+01
    -17.084  0.8727E-02  0.4000E+01
    -16.994  0.5018E-04  0.4000E+01
    -16.904  0.1464E-02  0.4000E+01
    -16.815  0.1019E+00  0.4009E+01
    -16.725  0.1764E+01  0.4168E+01
    -16.635  0.7910E+01  0.4878E+01
    -16.545  0.9440E+01  0.5726E+01
    -16.455  0.4272E+01  0.6109E+01
    -16.366  0.7506E+01  0.6783E+01
    -16.276  0.9857E+01  0.7668E+01
    -16.186  0.3399E+01  0.7974E+01
    -16.096  0.2884E+00  0.8000E+01
    -16.006  0.4789E-01  0.8004E+01
    -15.917  0.1016E+01  0.8095E+01
    -15.827  0.6259E+01  0.8657E+01
    -15.737  0.1016E+02  0.9570E+01
    -15.647  0.4697E+01  0.9991E+01
    -15.557  0.5272E+01  0.1046E+02
    -15.468  0.1690E+02  0.1198E+02
    -15.378  0.1707E+02  0.1351E+02
    -15.288  0.4992E+01  0.1396E+02
    -15.198  0.4017E+00  0.1400E+02
    -15.108  0.8174E-02  0.1400E+02
    -15.019  0.3884E-04  0.1400E+02
    -14.929  0.4073E-07  0.1400E+02
    -14.839  0.9105E-11  0.1400E+02
    -14.749  0.0000E+00  0.1400E+02
    -14.660  0.0000E+00  0.1400E+02
    -14.570  0.0000E+00  0.1400E+02
    -14.480  0.0000E+00  0.1400E+02
    -14.390  0.0000E+00  0.1400E+02
    -14.300  0.0000E+00  0.1400E+02
    -14.211  0.4121E-15  0.1400E+02
    -14.121  0.1001E-10  0.1400E+02
    -14.031  0.4326E-07  0.1400E+02
    -13.941  0.3991E-04  0.1400E+02
    -13.851  0.8043E-02  0.1400E+02
    -13.762  0.3654E+00  0.1403E+02
    -13.672  0.3900E+01  0.1438E+02
    -13.582  0.1020E+02  0.1530E+02
    -13.492  0.6681E+01  0.1590E+02
    -13.402  0.1080E+01  0.1600E+02
    -13.313  0.4125E-01  0.1600E+02
    -13.223  0.3543E-03  0.1600E+02
    -13.133  0.6589E-06  0.1600E+02
    -13.043  0.2587E-09  0.1600E+02
    -12.953  0.2061E-13  0.1600E+02
    -12.864  0.0000E+00  0.1600E+02
    -12.774  0.0000E+00  0.1600E+02
    -12.684  0.0000E+00  0.1600E+02
    -12.594  0.0000E+00  0.1600E+02
    -12.504  0.0000E+00  0.1600E+02
    -12.415  0.0000E+00  0.1600E+02
    -12.325  0.0000E+00  0.1600E+02
    -12.235  0.0000E+00  0.1600E+02
    -12.145  0.0000E+00  0.1600E+02
    -12.055  0.0000E+00  0.1600E+02
    -11.966  0.0000E+00  0.1600E+02
    -11.876  0.0000E+00  0.1600E+02
    -11.786  0.0000E+00  0.1600E+02
    -11.696  0.0000E+00  0.1600E+02
    -11.606  0.0000E+00  0.1600E+02
    -11.517  0.0000E+00  0.1600E+02
    -11.427  0.0000E+00  0.1600E+02
    -11.337  0.0000E+00  0.1600E+02
    -11.247  0.0000E+00  0.1600E+02
    -11.157  0.0000E+00  0.1600E+02
    -11.068  0.0000E+00  0.1600E+02
    -10.978  0.0000E+00  0.1600E+02
    -10.888  0.0000E+00  0.1600E+02
    -10.798  0.0000E+00  0.1600E+02
    -10.708  0.0000E+00  0.1600E+02
    -10.619  0.0000E+00  0.1600E+02
    -10.529  0.0000E+00  0.1600E+02
    -10.439  0.0000E+00  0.1600E+02
    -10.349  0.0000E+00  0.1600E+02
    -10.259  0.0000E+00  0.1600E+02
    -10.170  0.0000E+00  0.1600E+02
    -10.080  0.0000E+00  0.1600E+02
     -9.990  0.0000E+00  0.1600E+02
     -9.900  0.0000E+00  0.1600E+02
     -9.811  0.0000E+00  0.1600E+02
     -9.721  0.0000E+00  0.1600E+02
     -9.631  0.0000E+00  0.1600E+02
     -9.541  0.0000E+00  0.1600E+02
     -9.451  0.0000E+00  0.1600E+02
     -9.362  0.0000E+00  0.1600E+02
     -9.272  0.0000E+00  0.1600E+02
     -9.182  0.0000E+00  0.1600E+02
     -9.092  0.0000E+00  0.1600E+02
     -9.002  0.0000E+00  0.1600E+02
     -8.913  0.0000E+00  0.1600E+02
     -8.823  0.0000E+00  0.1600E+02
     -8.733  0.0000E+00  0.1600E+02
     -8.643  0.0000E+00  0.1600E+02
     -8.553  0.0000E+00  0.1600E+02
     -8.464  0.0000E+00  0.1600E+02
     -8.374  0.0000E+00  0.1600E+02
     -8.284  0.0000E+00  0.1600E+02
     -8.194  0.0000E+00  0.1600E+02
     -8.104  0.0000E+00  0.1600E+02
     -8.015  0.0000E+00  0.1600E+02
     -7.925  0.0000E+00  0.1600E+02
     -7.835  0.0000E+00  0.1600E+02
     -7.745  0.0000E+00  0.1600E+02
     -7.655  0.0000E+00  0.1600E+02
     -7.566  0.0000E+00  0.1600E+02
     -7.476  0.0000E+00  0.1600E+02
     -7.386  0.0000E+00  0.1600E+02
     -7.296  0.0000E+00  0.1600E+02
     -7.206  0.0000E+00  0.1600E+02
     -7.117  0.0000E+00  0.1600E+02
     -7.027  0.0000E+00  0.1600E+02
     -6.937  0.0000E+00  0.1600E+02
     -6.847  0.0000E+00  0.1600E+02
     -6.757  0.3388E-11  0.1600E+02
     -6.668  0.1679E-07  0.1600E+02
     -6.578  0.1738E-04  0.1600E+02
     -6.488  0.3849E-02  0.1600E+02
     -6.398  0.1897E+00  0.1602E+02
     -6.308  0.2211E+01  0.1622E+02
     -6.219  0.6780E+01  0.1682E+02
     -6.129  0.8418E+01  0.1758E+02
     -6.039  0.1188E+02  0.1865E+02
     -5.949  0.1459E+02  0.1996E+02
     -5.859  0.1122E+02  0.2097E+02
     -5.770  0.4871E+01  0.2140E+02
     -5.680  0.3691E+01  0.2173E+02
     -5.590  0.2489E+01  0.2196E+02
     -5.500  0.6444E+00  0.2202E+02
     -5.411  0.2295E+01  0.2222E+02
     -5.321  0.7575E+01  0.2290E+02
     -5.231  0.1296E+02  0.2407E+02
     -5.141  0.1917E+02  0.2579E+02
     -5.051  0.1373E+02  0.2702E+02
     -4.962  0.3469E+01  0.2733E+02
     -4.872  0.1970E+01  0.2751E+02
     -4.782  0.3525E+01  0.2783E+02
     -4.692  0.1849E+01  0.2799E+02
     -4.602  0.1835E+01  0.2816E+02
     -4.513  0.6196E+01  0.2871E+02
     -4.423  0.9046E+01  0.2952E+02
     -4.333  0.1482E+02  0.3086E+02
     -4.243  0.1811E+02  0.3248E+02
     -4.153  0.8358E+01  0.3323E+02
     -4.064  0.2619E+01  0.3347E+02
     -3.974  0.3525E+01  0.3378E+02
     -3.884  0.2095E+01  0.3397E+02
     -3.794  0.3078E+00  0.3400E+02
     -3.704  0.1605E+00  0.3401E+02
     -3.615  0.1835E+01  0.3418E+02
     -3.525  0.7992E+01  0.3490E+02
     -3.435  0.1594E+02  0.3633E+02
     -3.345  0.1672E+02  0.3783E+02
     -3.255  0.1077E+02  0.3880E+02
     -3.166  0.6378E+01  0.3937E+02
     -3.076  0.4691E+01  0.3979E+02
     -2.986  0.2061E+01  0.3997E+02
     -2.896  0.2776E+00  0.4000E+02
     -2.806  0.9502E-02  0.4000E+02
     -2.717  0.1345E-03  0.4000E+02
     -2.627  0.8254E-02  0.4000E+02
     -2.537  0.2971E+00  0.4003E+02
     -2.447  0.3306E+01  0.4032E+02
     -2.357  0.1407E+02  0.4159E+02
     -2.268  0.2815E+02  0.4411E+02
     -2.178  0.3432E+02  0.4720E+02
     -2.088  0.2694E+02  0.4962E+02
     -1.998  0.1412E+02  0.5088E+02
     -1.908  0.4445E+01  0.5128E+02
     -1.819  0.9792E+00  0.5137E+02
     -1.729  0.2592E+01  0.5160E+02
     -1.639  0.4399E+01  0.5200E+02
     -1.549  0.2646E+01  0.5224E+02
     -1.459  0.4578E+01  0.5265E+02
     -1.370  0.1316E+02  0.5383E+02
     -1.280  0.1980E+02  0.5561E+02
     -1.190  0.2300E+02  0.5767E+02
     -1.100  0.1868E+02  0.5935E+02
     -1.010  0.1686E+02  0.6086E+02
     -0.921  0.2359E+02  0.6298E+02
     -0.831  0.1691E+02  0.6450E+02
     -0.741  0.5781E+01  0.6502E+02
     -0.651  0.1085E+01  0.6511E+02
     -0.562  0.1392E+01  0.6524E+02
     -0.472  0.4342E+01  0.6563E+02
     -0.382  0.3439E+01  0.6594E+02
     -0.292  0.6948E+00  0.6600E+02
     -0.202  0.6014E+00  0.6605E+02
     -0.113  0.2083E+01  0.6624E+02
     -0.023  0.1842E+01  0.6641E+02
      0.067  0.3945E+00  0.6644E+02
      0.157  0.1968E-01  0.6644E+02
      0.247  0.2782E-03  0.6644E+02
      0.336  0.9364E-02  0.6645E+02
      0.426  0.3234E+00  0.6647E+02
      0.516  0.2619E+01  0.6671E+02
      0.606  0.5440E+01  0.6720E+02
      0.696  0.3284E+01  0.6749E+02
      0.785  0.6548E+00  0.6755E+02
      0.875  0.4273E-01  0.6756E+02
      0.965  0.9474E-02  0.6756E+02
      1.055  0.2410E+00  0.6758E+02
      1.145  0.1637E+01  0.6772E+02
      1.234  0.3677E+01  0.6806E+02
      1.324  0.4304E+01  0.6844E+02
      1.414  0.2184E+01  0.6864E+02
      1.504  0.3783E+00  0.6867E+02
      1.594  0.7172E+00  0.6874E+02
      1.683  0.2901E+01  0.6900E+02
      1.773  0.5443E+01  0.6949E+02
      1.863  0.4493E+01  0.6989E+02
      1.953  0.3431E+01  0.7020E+02
      2.043  0.2805E+01  0.7045E+02
      2.132  0.2892E+01  0.7071E+02
      2.222  0.4451E+01  0.7111E+02
      2.312  0.5238E+01  0.7158E+02
      2.402  0.3379E+01  0.7188E+02
      2.492  0.4129E+01  0.7225E+02
      2.581  0.8294E+01  0.7300E+02
      2.671  0.1080E+02  0.7397E+02
      2.761  0.6310E+01  0.7453E+02
      2.851  0.2096E+01  0.7472E+02
      2.941  0.1874E+01  0.7489E+02
      3.030  0.3078E+01  0.7517E+02
      3.120  0.4777E+01  0.7560E+02
      3.210  0.5131E+01  0.7606E+02
      3.300  0.3416E+01  0.7636E+02
      3.390  0.6446E+01  0.7694E+02
      3.479  0.8535E+01  0.7771E+02
      3.569  0.6567E+01  0.7830E+02
      3.659  0.6021E+01  0.7884E+02
      3.749  0.8815E+01  0.7963E+02
      3.839  0.1122E+02  0.8064E+02
      3.928  0.9600E+01  0.8150E+02
      4.018  0.6323E+01  0.8207E+02
      4.108  0.8086E+01  0.8279E+02
      4.198  0.5165E+01  0.8326E+02
      4.287  0.2107E+01  0.8345E+02
      4.377  0.5496E+01  0.8394E+02
      4.467  0.8336E+01  0.8469E+02
      4.557  0.9729E+01  0.8556E+02
      4.647  0.1026E+02  0.8648E+02
      4.736  0.4975E+01  0.8693E+02
      4.826  0.2913E+01  0.8719E+02
      4.916  0.2747E+01  0.8744E+02
      5.006  0.6762E+01  0.8805E+02
      5.096  0.1169E+02  0.8910E+02
      5.185  0.1063E+02  0.9005E+02
      5.275  0.5666E+01  0.9056E+02
      5.365  0.1214E+01  0.9067E+02
      5.455  0.1215E+01  0.9078E+02
      5.545  0.4327E+01  0.9117E+02
      5.634  0.5072E+01  0.9162E+02
      5.724  0.5356E+01  0.9210E+02
      5.814  0.8581E+01  0.9287E+02
      5.904  0.7443E+01  0.9354E+02
      5.994  0.2674E+01  0.9378E+02
      6.083  0.2735E+01  0.9403E+02
      6.173  0.5867E+01  0.9455E+02
      6.263  0.5595E+01  0.9506E+02
      6.353  0.2735E+01  0.9530E+02
      6.443  0.1084E+01  0.9540E+02
      6.532  0.1185E+01  0.9551E+02
      6.622  0.5072E+00  0.9555E+02
      6.712  0.5902E-01  0.9556E+02
      6.802  0.2008E+00  0.9557E+02
      6.892  0.1388E+01  0.9570E+02
      6.981  0.2318E+01  0.9591E+02
      7.071  0.9437E+00  0.9599E+02
      7.161  0.9130E-01  0.9600E+02
      7.251  0.2005E-02  0.9600E+02
      7.341  0.9586E-05  0.9600E+02
      7.430  0.9686E-08  0.9600E+02
      7.520  0.2031E-11  0.9600E+02
      7.610  0.0000E+00  0.9600E+02
      7.700  0.0000E+00  0.9600E+02
      7.790  0.0000E+00  0.9600E+02
      7.879  0.0000E+00  0.9600E+02
      7.969  0.0000E+00  0.9600E+02
      8.059  0.0000E+00  0.9600E+02
      8.149  0.0000E+00  0.9600E+02
