   20   20    1    1
  0.3235678E+02  0.4457378E-09  0.6303685E-09  0.3257139E-08  0.5000000E-15
  1.000000000000000E-004
  CAR 
 unknown system                          
     64      4     48
 
  0.0000000E+00  0.0000000E+00  0.0000000E+00  0.1111111E+00
    1      -17.565635   1.000000
    2      -17.392629   1.000000
    3      -16.660354   1.000000
    4      -16.352245   1.000000
    5      -15.829071   1.000000
    6      -15.510120   1.000000
    7      -15.452227   1.000000
    8      -13.623342   1.000000
    9       -6.105758   1.000000
   10       -6.017663   1.000000
   11       -5.705515   1.000000
   12       -5.223558   1.000000
   13       -5.220984   1.000000
   14       -4.832035   1.000000
   15       -4.381602   1.000000
   16       -4.352529   1.000000
   17       -4.010489   1.000000
   18       -3.493603   1.000000
   19       -3.193078   1.000000
   20       -3.093867   1.000000
   21       -2.344015   1.000000
   22       -2.305855   1.000000
   23       -2.183497   1.000000
   24       -2.108884   1.000000
   25       -1.999238   1.000000
   26       -1.723867   1.000000
   27       -1.645765   1.000000
   28       -1.220825   1.000000
   29       -1.215376   1.000000
   30       -1.076380   0.998325
   31       -0.978524   0.939391
   32       -0.900830   0.673979
   33       -0.806548   0.188776
   34        0.632329   0.000000
   35        1.283962   0.000000
   36        1.641335   0.000000
   37        1.863120   0.000000
   38        2.700704   0.000000
   39        2.892699   0.000000
   40        3.334663   0.000000
   41        3.684663   0.000000
   42        3.878672   0.000000
   43        4.111024   0.000000
   44        4.472448   0.000000
   45        4.652457   0.000000
   46        4.980656   0.000000
   47        6.226817   0.000000
   48        6.479331   0.000000
 
  0.3333333E+00  0.0000000E+00  0.0000000E+00  0.2222222E+00
    1      -17.490170   1.000000
    2      -17.401384   1.000000
    3      -16.615777   1.000000
    4      -16.333282   1.000000
    5      -15.785484   1.000000
    6      -15.485887   1.000000
    7      -15.425655   1.000000
    8      -13.602370   1.000000
    9       -6.208887   1.000000
   10       -5.961312   1.000000
   11       -5.903475   1.000000
   12       -5.311358   1.000000
   13       -5.162059   1.000000
   14       -5.100026   1.000000
   15       -4.488614   1.000000
   16       -4.322623   1.000000
   17       -4.235022   1.000000
   18       -3.566691   1.000000
   19       -3.410366   1.000000
   20       -3.367171   1.000000
   21       -2.416960   1.000000
   22       -2.271063   1.000000
   23       -2.253435   1.000000
   24       -2.173594   1.000000
   25       -2.167232   1.000000
   26       -2.100782   1.000000
   27       -1.390769   1.000000
   28       -1.389304   1.000000
   29       -1.289850   1.000000
   30       -1.222280   1.000000
   31       -0.976961   0.936692
   32       -0.949830   0.873666
   33       -0.835434   0.317781
   34        1.171231   0.000000
   35        1.954424   0.000000
   36        2.446960   0.000000
   37        2.589536   0.000000
   38        2.691822   0.000000
   39        3.527885   0.000000
   40        3.881085   0.000000
   41        4.060990   0.000000
   42        4.063954   0.000000
   43        4.564831   0.000000
   44        5.002842   0.000000
   45        5.033268   0.000000
   46        5.676027   0.000000
   47        5.781133   0.000000
   48        6.248528   0.000000
 
  0.0000000E+00  0.3333333E+00  0.0000000E+00  0.2222222E+00
    1      -17.524257   1.000000
    2      -17.433788   1.000000
    3      -16.642112   1.000000
    4      -16.370958   1.000000
    5      -15.814282   1.000000
    6      -15.506732   1.000000
    7      -15.470016   1.000000
    8      -13.625046   1.000000
    9       -6.083782   1.000000
   10       -6.002764   1.000000
   11       -5.694970   1.000000
   12       -5.217606   1.000000
   13       -5.199018   1.000000
   14       -4.824346   1.000000
   15       -4.370975   1.000000
   16       -4.326352   1.000000
   17       -4.003721   1.000000
   18       -3.512440   1.000000
   19       -3.429874   1.000000
   20       -3.124182   1.000000
   21       -2.345013   1.000000
   22       -2.317251   1.000000
   23       -2.211280   1.000000
   24       -2.155527   1.000000
   25       -2.028931   1.000000
   26       -1.693988   1.000000
   27       -1.439683   1.000000
   28       -1.250404   1.000000
   29       -1.189565   0.999997
   30       -1.092809   0.999227
   31       -0.989412   0.955779
   32       -0.958823   0.898149
   33       -0.958260   0.896725
   34       -0.120350   0.000000
   35        1.296729   0.000000
   36        2.126807   0.000000
   37        2.558178   0.000000
   38        3.021963   0.000000
   39        3.395987   0.000000
   40        3.580762   0.000000
   41        3.721132   0.000000
   42        4.096008   0.000000
   43        4.356510   0.000000
   44        4.565464   0.000000
   45        4.794842   0.000000
   46        5.137269   0.000000
   47        5.873341   0.000000
   48        6.924222   0.000000
 
  0.3333333E+00  0.3333333E+00  0.0000000E+00  0.4444444E+00
    1      -17.469262   1.000000
    2      -17.420531   1.000000
    3      -16.609915   1.000000
    4      -16.338097   1.000000
    5      -15.780655   1.000000
    6      -15.479463   1.000000
    7      -15.436297   1.000000
    8      -13.601749   1.000000
    9       -6.249503   1.000000
   10       -6.047154   1.000000
   11       -5.911086   1.000000
   12       -5.352303   1.000000
   13       -5.152161   1.000000
   14       -5.139512   1.000000
   15       -4.528572   1.000000
   16       -4.296681   1.000000
   17       -4.280879   1.000000
   18       -3.474975   1.000000
   19       -3.392063   1.000000
   20       -3.281761   1.000000
   21       -2.354758   1.000000
   22       -2.299004   1.000000
   23       -2.231756   1.000000
   24       -2.217890   1.000000
   25       -2.175824   1.000000
   26       -2.074039   1.000000
   27       -1.370922   1.000000
   28       -1.295627   1.000000
   29       -1.207431   0.999999
   30       -1.147657   0.999960
   31       -0.964870   0.912544
   32       -0.905695   0.698372
   33       -0.486569   0.000000
   34        0.556073   0.000000
   35        1.745787   0.000000
   36        2.261167   0.000000
   37        2.617568   0.000000
   38        3.150082   0.000000
   39        3.413271   0.000000
   40        3.754039   0.000000
   41        3.855882   0.000000
   42        4.405012   0.000000
   43        4.588335   0.000000
   44        5.068169   0.000000
   45        5.187275   0.000000
   46        5.536606   0.000000
   47        5.804338   0.000000
   48        6.126642   0.000000
