 vasp.6.2.1 16May21 (build Dec 23 2021 00:35:04) complex                        
  
 executed on             LinuxIFC date 2023.03.08  11:51:45
 running on  128 total cores
 distrk:  each k-point on  128 cores,    1 groups
 distr:  one band on NCORE=  16 cores,    8 groups


--------------------------------------------------------------------------------------------------------


 INCAR:
   ENCUT = 400.000000
   KSPACING = 0.500000
   SIGMA = 0.100000
   EDIFF = 1.00e-08
   EDIFFG = -1.00e-02
   ALGO = Fast
   GGA = PE
   PREC = Normal
   IBRION = -1
   IDIPOL = 3
   ISIF = 3
   ISMEAR = 0
   ISPIN = 0
   LMAXMIX = 6
   NELM = 150
   NPAR = 8
   NSW = 0
   NWRITE = 1
   DIPOL = 0.2573 0.5736 0.5081
   KGAMMA = .TRUE.
   LASPH = .TRUE.
   LCHARG = .FALSE.
   LDIPOL = .TRUE.
   LWAVE = .FALSE.
   LREAL = AUTO

 POTCAR:    PAW_PBE Na 08Apr2002                  
 POTCAR:    PAW_PBE O 08Apr2002                   
 POTCAR:    PAW_PBE Cl 06Sep2000                  
 POTCAR:    PAW_PBE Na 08Apr2002                  
  local pseudopotential read in
  partial core-charges read in
  partial kinetic energy density read in
  atomic valenz-charges read in
  non local Contribution for L=           0  read in
    real space projection operators read in
  non local Contribution for L=           0  read in
    real space projection operators read in
  non local Contribution for L=           1  read in
    real space projection operators read in
    PAW grid and wavefunctions read in
 
   number of l-projection  operators is LMAX  =           3
   number of lm-projection operators is LMMAX =           5
 
 POTCAR:    PAW_PBE O 08Apr2002                   
  local pseudopotential read in
  partial core-charges read in
  partial kinetic energy density read in
  kinetic energy density of atom read in
  atomic valenz-charges read in
  non local Contribution for L=           0  read in
    real space projection operators read in
  non local Contribution for L=           0  read in
    real space projection operators read in
  non local Contribution for L=           1  read in
    real space projection operators read in
  non local Contribution for L=           1  read in
    real space projection operators read in
    PAW grid and wavefunctions read in
 
   number of l-projection  operators is LMAX  =           4
   number of lm-projection operators is LMMAX =           8
 
 POTCAR:    PAW_PBE Cl 06Sep2000                  
  local pseudopotential read in
  partial core-charges read in
  partial kinetic energy density read in
  atomic valenz-charges read in
  non local Contribution for L=           0  read in
    real space projection operators read in
  non local Contribution for L=           0  read in
    real space projection operators read in
  non local Contribution for L=           1  read in
    real space projection operators read in
  non local Contribution for L=           1  read in
    real space projection operators read in
    PAW grid and wavefunctions read in
 
   number of l-projection  operators is LMAX  =           4
   number of lm-projection operators is LMMAX =           8
 
 Optimization of the real space projectors (new method)

 maximal supplied QI-value         = 17.01
 optimisation between [QCUT,QGAM] = [ 10.20, 20.41] = [ 29.16,116.64] Ry 
 Optimized for a Real-space Cutoff    1.19 Angstroem

   l    n(q)    QCUT    max X(q) W(low)/X(q) W(high)/X(q)  e(spline) 
   0      7    10.205    45.123    0.22E-03    0.82E-03    0.11E-06
   0      7    10.205    12.364    0.17E-03    0.61E-03    0.75E-07
   1      7    10.205     8.302    0.37E-03    0.15E-03    0.27E-07
 Optimization of the real space projectors (new method)

 maximal supplied QI-value         = 24.76
 optimisation between [QCUT,QGAM] = [ 10.15, 20.30] = [ 28.85,115.39] Ry 
 Optimized for a Real-space Cutoff    1.38 Angstroem

   l    n(q)    QCUT    max X(q) W(low)/X(q) W(high)/X(q)  e(spline) 
   0      8    10.150    20.381    0.22E-03    0.32E-03    0.29E-06
   0      8    10.150    15.268    0.23E-03    0.35E-03    0.30E-06
   1      8    10.150     5.964    0.46E-03    0.53E-03    0.21E-06
   1      8    10.150     5.382    0.38E-03    0.45E-03    0.19E-06
 Optimization of the real space projectors (new method)

 maximal supplied QI-value         = 19.84
 optimisation between [QCUT,QGAM] = [ 10.12, 20.44] = [ 28.68,116.96] Ry 
 Optimized for a Real-space Cutoff    1.23 Angstroem

   l    n(q)    QCUT    max X(q) W(low)/X(q) W(high)/X(q)  e(spline) 
   0      7    10.119   168.010    0.54E-04    0.25E-03    0.48E-07
   0      7    10.119   164.674    0.53E-04    0.25E-03    0.47E-07
   1      7    10.119    69.222    0.45E-03    0.63E-03    0.13E-06
   1      7    10.119    56.786    0.45E-03    0.62E-03    0.13E-06
  PAW_PBE Na 08Apr2002                  :
 energy of atom  1       EATOM=   -5.1581
 kinetic energy error for atom=    0.0001 (will be added to EATOM!!)
  PAW_PBE O 08Apr2002                   :
 energy of atom  2       EATOM= -432.3788
 kinetic energy error for atom=    0.1156 (will be added to EATOM!!)
  PAW_PBE Cl 06Sep2000                  :
 energy of atom  3       EATOM= -409.7259
 kinetic energy error for atom=    0.0089 (will be added to EATOM!!)
 
 
 POSCAR: Na  O Cl
  positions in cartesian coordinates
  No initial velocities read in
 exchange correlation table for  LEXCH =        8
   RHO(1)=    0.500       N(1)  =     2000
   RHO(2)=  100.500       N(2)  =     4000
 


--------------------------------------------------------------------------------------------------------


 ion  position               nearest neighbor table
   1  0.500  0.500  0.261-  13 2.23   3 3.15  17 3.15   2 3.15  17 3.15   6 3.15   2 3.15   3 3.15

   2  0.000  0.500  0.329-  13 2.23  13 2.23   6 3.15   6 3.15   4 3.15  18 3.15  17 3.15   1 3.15
                             3 3.15   4 3.15  17 3.15   1 3.15   3 3.15
   3  0.500  1.000  0.261-  13 2.23   1 3.15  17 3.15   2 3.15   4 3.15  17 3.15   1 3.15   2 3.15

   4  0.500  0.500  0.397-  13 2.23  14 2.23   6 3.15  18 3.15  18 3.15   2 3.15   9 3.15   5 3.15
                            17 3.15   3 3.15   2 3.15   5 3.15  17 3.15   6 3.15
   5  0.000  0.500  0.466-  14 2.23  14 2.23  18 3.15   7 3.15   9 3.15  19 3.15   7 3.15   4 3.15
                             9 3.15  17 3.15   4 3.15   6 3.15   6 3.15  18 3.15
   6  0.500  0.000  0.397-  13 2.23  14 2.23   4 3.15   2 3.15   2 3.15  18 3.15  18 3.15   7 3.15
                             1 3.15  17 3.15   5 3.15  17 3.15   5 3.15   4 3.15
   7  0.500  0.500  0.534-  14 2.23  15 2.23   5 3.15   9 3.15  19 3.15   5 3.15   8 3.15  19 3.15
                             6 3.15  12 3.15   8 3.15   9 3.15  18 3.15  18 3.15
   8  0.000  0.500  0.603-  15 2.23  15 2.23  12 3.15  12 3.15  20 3.15  10 3.15  19 3.15   7 3.15
                             9 3.15  10 3.15  19 3.15   7 3.15   9 3.15  18 3.15
   9  0.500  1.000  0.534-  14 2.23  15 2.23  18 3.15   7 3.15   5 3.15  19 3.15  18 3.15   4 3.15
                             5 3.15   8 3.15  10 3.15  19 3.15   7 3.15   8 3.15
  10  0.500  0.500  0.671-  15 2.23  16 2.23  12 3.15  20 3.15   8 3.15  11 3.15  19 3.15  20 3.15
                             9 3.15   8 3.15  11 3.15  19 3.15  12 3.15
  11  0.000  0.500  0.739-  16 2.23  16 2.23  20 3.15  10 3.15  20 3.15  19 3.15  10 3.15  12 3.15
                            12 3.15
  12  0.500  0.000  0.671-  15 2.23  16 2.23  10 3.15  20 3.15   8 3.15  20 3.15   8 3.15   7 3.15
                            19 3.15  11 3.15  19 3.15  11 3.15  10 3.15
  13  0.500  0.500  0.329-   6 2.23   2 2.23   4 2.23   1 2.23   3 2.23   2 2.23
  14  0.500  0.500  0.466-   7 2.23   5 2.23   9 2.23   4 2.23   5 2.23   6 2.23
  15  0.500  0.500  0.603-  12 2.23   8 2.23  10 2.23   7 2.23   9 2.23   8 2.23
  16  0.500  0.500  0.739-  11 2.23  10 2.23  11 2.23  12 2.23
  17  0.000  1.000  0.329-   1 3.15   3 3.15   2 3.15   4 3.15   1 3.15   3 3.15   2 3.15   5 3.15
                             4 3.15   6 3.15   6 3.15
  18  0.000  0.000  0.466-   5 3.15   4 3.15   9 3.15   4 3.15   6 3.15   2 3.15   9 3.15   6 3.15
                             8 3.15   7 3.15   7 3.15   5 3.15
  19  0.000  1.000  0.603-   7 3.15   5 3.15   9 3.15   8 3.15  10 3.15   7 3.15   9 3.15   8 3.15
                            11 3.15  10 3.15  12 3.15  12 3.15
  20  0.000  1.000  0.739-  12 3.15  12 3.15  10 3.15   8 3.15  11 3.15  10 3.15  11 3.15
 
  LATTYP: Found a simple monoclinic cell.
 ALAT       =     6.3036850495
 B/A-ratio  =     0.7071067812
 C/A-ratio  =     3.6700281131
 COS(beta)  =    -0.0943729981
  
  Lattice vectors:
  
 A1 = (   4.4573784450,  -4.4573784450,   0.0000000000)
 A2 = (   3.1518425248,   3.1518425248,   0.0000000000)
 A3 = (  -1.5438199611,   1.5438199611,  23.0314490713)


Analysis of symmetry for initial positions (statically):
=====================================================================
 Subroutine PRICEL returns:
 Original cell was already a primitive cell.
 

 Routine SETGRP: Setting up the symmetry group for a 
 simple monoclinic supercell.


 Subroutine GETGRP returns: Found  2 space group operations
 (whereof  2 operations were pure point group operations)
 out of a pool of  4 trial point group operations.


The static configuration has the point symmetry C_1h.


Analysis of symmetry for dynamics (positions and initial velocities):
=====================================================================
 Subroutine PRICEL returns:
 Original cell was already a primitive cell.
 

 Routine SETGRP: Setting up the symmetry group for a 
 simple monoclinic supercell.


 Subroutine GETGRP returns: Found  2 space group operations
 (whereof  2 operations were pure point group operations)
 out of a pool of  4 trial point group operations.


The dynamic configuration has the point symmetry C_1h.


 Subroutine INISYM returns: Found  2 space group operations
 (whereof  2 operations are pure point group operations),
 and found     1 'primitive' translations


----------------------------------------------------------------------------------------

                                     Primitive cell                                     

  volume of cell :     647.1356

  direct lattice vectors                    reciprocal lattice vectors
    -3.151842525 -3.151842525  0.000000000    -0.158637367 -0.158637367  0.000000000
     4.457378445 -4.457378445  0.000000000     0.112173558 -0.112173558 -0.158637367
    16.285693819-16.285693819 23.031449071     0.000000000  0.000000000  0.043418892

  length of vectors
     4.457378445  6.303685050 32.571387638     0.224347116  0.224347116  0.043418892

  position of ions in fractional coordinates (direct lattice)
     0.500000174  0.499999826  0.260513352
     0.000000100  0.499999826  0.328938117
     0.500000174  0.999999900  0.260513352
     0.500000174  0.499999826  0.397362862
     0.000000100  0.499999826  0.465787628
     0.500000174  0.000000100  0.397362862
     0.500000174  0.499999826  0.534212372
     0.000000100  0.499999826  0.602637138
     0.500000174  0.999999900  0.534212372
     0.500000174  0.499999826  0.671061883
     0.000000100  0.499999826  0.739486648
     0.500000174  0.000000100  0.671061883
     0.500000174  0.499999826  0.328938117
     0.500000174  0.499999826  0.465787628
     0.500000174  0.499999826  0.602637138
     0.500000174  0.499999826  0.739486648
     0.000000100  0.999999900  0.328938097
     0.000000100  0.000000100  0.465787607
     0.000000100  0.999999900  0.602637117
     0.000000100  0.999999900  0.739486628

  ion indices of the primitive-cell ions
   primitive index   ion index
                 1           1
                 2           2
                 3           3
                 4           4
                 5           5
                 6           6
                 7           7
                 8           8
                 9           9
                10          10
                11          11
                12          12
                13          13
                14          14
                15          15
                16          16
                17          17
                18          18
                19          19
                20          20

----------------------------------------------------------------------------------------

 
 -----------------------------------------------------------------------------
|                                                                             |
|           W    W    AA    RRRRR   N    N  II  N    N   GGGG   !!!           |
|           W    W   A  A   R    R  NN   N  II  NN   N  G    G  !!!           |
|           W    W  A    A  R    R  N N  N  II  N N  N  G       !!!           |
|           W WW W  AAAAAA  RRRRR   N  N N  II  N  N N  G  GGG   !            |
|           WW  WW  A    A  R   R   N   NN  II  N   NN  G    G                |
|           W    W  A    A  R    R  N    N  II  N    N   GGGG   !!!           |
|                                                                             |
|     The requested file  could not be found or opened for reading            |
|     k-point information. Automatic k-point generation is used as a          |
|     fallback, which may lead to unwanted results.                           |
|                                                                             |
 -----------------------------------------------------------------------------

 

Automatic generation of k-mesh.
 Grid dimensions derived from KSPACING:
 generate k-points for:    3    3    1

 Generating k-lattice:

  Cartesian coordinates                     Fractional coordinates (reciprocal lattice)
    -0.052879122 -0.052879122  0.000000000     0.333333333  0.000000000  0.000000000
     0.037391186 -0.037391186 -0.052879122     0.000000000  0.333333333 -0.000000000
     0.000000000  0.000000000  0.043418892     0.000000000  0.000000000  1.000000000

  Length of vectors
     0.074782372  0.074782372  0.043418892

  Shift w.r.t. Gamma in fractional coordinates (k-lattice)
     0.000000000  0.000000000  0.000000000

 
 Subroutine IBZKPT returns following result:
 ===========================================
 
 Found      4 irreducible k-points:
 
 Following reciprocal coordinates:
            Coordinates               Weight
  0.000000  0.000000  0.000000      1.000000
  0.333333  0.000000  0.000000      2.000000
  0.000000  0.333333  0.000000      2.000000
  0.333333  0.333333  0.000000      4.000000
 
 Following cartesian coordinates:
            Coordinates               Weight
  0.000000  0.000000  0.000000      1.000000
 -0.052879 -0.052879  0.000000      2.000000
  0.037391 -0.037391 -0.052879      2.000000
 -0.015488 -0.090270 -0.052879      4.000000
 


--------------------------------------------------------------------------------------------------------




 Dimension of arrays:
   k-points           NKPTS =      4   k-points in BZ     NKDIM =      4   number of bands    NBANDS=     48
   number of dos      NEDOS =    301   number of ions     NIONS =     20
   non local maximal  LDIM  =      4   non local SUM 2l+1 LMDIM =      8
   total plane-waves  NPLWV = 122880
   max r-space proj   IRMAX =   2142   max aug-charges    IRDMAX=   9443
   dimension x,y,z NGX =    24 NGY =   32 NGZ =  160
   dimension x,y,z NGXF=    48 NGYF=   64 NGZF=  320
   support grid    NGXF=    48 NGYF=   64 NGZF=  320
   ions per type =              12   4   4
   NGX,Y,Z   is equivalent  to a cutoff of   8.95,  8.44,  8.17 a.u.
   NGXF,Y,Z  is equivalent  to a cutoff of  17.90, 16.88, 16.33 a.u.

 SYSTEM =  unknown system                          
 POSCAR =  Na  O Cl                                

 Startparameter for this run:
   NWRITE =      1    write-flag & timer
   PREC   = normal    normal or accurate (medium, high low for compatibility)
   ISTART =      0    job   : 0-new  1-cont  2-samecut
   ICHARG =      2    charge: 1-file 2-atom 10-const
   ISPIN  =      1    spin polarized calculation?
   LNONCOLLINEAR =      F non collinear calculations
   LSORBIT =      F    spin-orbit coupling
   INIWAV =      1    electr: 0-lowe 1-rand  2-diag
   LASPH  =      T    aspherical Exc in radial PAW
 Electronic Relaxation 1
   ENCUT  =  400.0 eV  29.40 Ry    5.42 a.u.   7.27 10.28 53.12*2*pi/ulx,y,z
   ENINI  =  400.0     initial cutoff
   ENAUG  =  605.4 eV  augmentation charge cutoff
   NELM   =    150;   NELMIN=  2; NELMDL= -5     # of ELM steps 
   EDIFF  = 0.1E-07   stopping-criterion for ELM
   LREAL  =      T    real-space projection
   NLSPLINE    = F    spline interpolate recip. space projectors
   LCOMPAT=      F    compatible to vasp.4.4
   GGA_COMPAT  = T    GGA compatible to vasp.4.4-vasp.4.6
   LMAXPAW     = -100 max onsite density
   LMAXMIX     =    6 max onsite mixed and CHGCAR
   VOSKOWN=      0    Vosko Wilk Nusair interpolation
   ROPT   =   -0.00050  -0.00050  -0.00050
 Ionic relaxation
   EDIFFG = -.1E-01   stopping-criterion for IOM
   NSW    =      0    number of steps for IOM
   NBLOCK =      1;   KBLOCK =      1    inner block; outer block 
   IBRION =     -1    ionic relax: 0-MD 1-quasi-New 2-CG
   NFREE  =      0    steps in history (QN), initial steepest desc. (CG)
   ISIF   =      3    stress and relaxation
   IWAVPR =     10    prediction:  0-non 1-charg 2-wave 3-comb
   ISYM   =      2    0-nonsym 1-usesym 2-fastsym
   LCORR  =      T    Harris-Foulkes like correction to forces

   POTIM  = 0.5000    time-step for ionic-motion
   TEIN   =    0.0    initial temperature
   TEBEG  =    0.0;   TEEND  =   0.0 temperature during run
   SMASS  =  -3.00    Nose mass-parameter (am)
   estimated Nose-frequenzy (Omega)   =  0.10E-29 period in steps = 0.13E+47 mass=  -0.454E-27a.u.
   SCALEE = 1.0000    scale energy and forces
   NPACO  =    256;   APACO  = 16.0  distance and # of slots for P.C.
   PSTRESS=    0.0 pullay stress

  Mass of Ions in am
   POMASS =  22.99 16.00 35.45
  Ionic Valenz
   ZVAL   =   1.00  6.00  7.00
  Atomic Wigner-Seitz radii
   RWIGS  =  -1.00 -1.00 -1.00
  virtual crystal weights 
   VCA    =   1.00  1.00  1.00
   NELECT =      64.0000    total number of electrons
   NUPDOWN=      -1.0000    fix difference up-down

 DOS related values:
   EMIN   =  10.00;   EMAX   =-10.00  energy-range for DOS
   EFERMI =   0.00
   ISMEAR =     0;   SIGMA  =   0.10  broadening in eV -4-tet -1-fermi 0-gaus

 Electronic relaxation 2 (details)
   IALGO  =     68    algorithm
   LDIAG  =      T    sub-space diagonalisation (order eigenvalues)
   LSUBROT=      F    optimize rotation matrix (better conditioning)
   TURBO    =      0    0=normal 1=particle mesh
   IRESTART =      0    0=no restart 2=restart with 2 vectors
   NREBOOT  =      0    no. of reboots
   NMIN     =      0    reboot dimension
   EREF     =   0.00    reference energy to select bands
   IMIX   =      4    mixing-type and parameters
     AMIX     =   0.40;   BMIX     =  1.00
     AMIX_MAG =   1.60;   BMIX_MAG =  1.00
     AMIN     =   0.10
     WC   =   100.;   INIMIX=   1;  MIXPRE=   1;  MAXMIX= -45

 Intra band minimization:
   WEIMIN = 0.0000     energy-eigenvalue tresh-hold
   EBREAK =  0.52E-10  absolut break condition
   DEPER  =   0.30     relativ break condition  

   TIME   =   0.40     timestep for ELM

  volume/ion in A,a.u.               =      32.36       218.35
  Fermi-wavevector in a.u.,A,eV,Ry     =   0.757071  1.430656  7.798260  0.573156
  Thomas-Fermi vector in A             =   1.855334
 
 Write flags
   LWAVE        =      F    write WAVECAR
   LDOWNSAMPLE  =      F    k-point downsampling of WAVECAR
   LCHARG       =      F    write CHGCAR
   LVTOT        =      F    write LOCPOT, total local potential
   LVHAR        =      F    write LOCPOT, Hartree potential only
   LELF         =      F    write electronic localiz. function (ELF)
   LORBIT       =      0    0 simple, 1 ext, 2 COOP (PROOUT), +10 PAW based schemes


 Dipole corrections
   LMONO  =      F    monopole corrections only (constant potential shift)
   LDIPOL =      T    correct potential (dipole corrections)
   IDIPOL =      3    1-x, 2-y, 3-z, 4-all directions 
   EPSILON=  1.0000000 bulk dielectric constant

 Exchange correlation treatment:
   GGA     =    PE    GGA type
   LEXCH   =     8    internal setting for exchange type
   VOSKOWN=      0    Vosko Wilk Nusair interpolation
   LHFCALC =     F    Hartree Fock is set to
   LHFONE  =     F    Hartree Fock one center treatment
   AEXX    =    0.0000 exact exchange contribution

 Linear response parameters
   LEPSILON=     F    determine dielectric tensor
   LRPA    =     F    only Hartree local field effects (RPA)
   LNABLA  =     F    use nabla operator in PAW spheres
   LVEL    =     F    velocity operator in full k-point grid
   LINTERFAST=   F  fast interpolation
   KINTER  =     0    interpolate to denser k-point grid
   CSHIFT  =0.1000    complex shift for real part using Kramers Kronig
   OMEGAMAX=  -1.0    maximum frequency
   DEG_THRESHOLD= 0.2000000E-02 threshold for treating states as degnerate
   RTIME   =   -0.100 relaxation time in fs
  (WPLASMAI=    0.000 imaginary part of plasma frequency in eV, 0.658/RTIME)
   DFIELD  = 0.0000000 0.0000000 0.0000000 field for delta impulse in time
 
 Orbital magnetization related:
   ORBITALMAG=     F  switch on orbital magnetization
   LCHIMAG   =     F  perturbation theory with respect to B field
   DQ        =  0.001000  dq finite difference perturbation B field
   LLRAUG    =     F  two centre corrections for induced B field



--------------------------------------------------------------------------------------------------------


 Static calculation
 charge density and potential will be updated during run
 non-spin polarized calculation
 RMM-DIIS sequential band-by-band and
  variant of blocked Davidson during initial phase
 perform sub-space diagonalisation
    before iterative eigenvector-optimisation
 modified Broyden-mixing scheme, WC =      100.0
 initial mixing is a Kerker type mixing with AMIX =  0.4000 and BMIX =      1.0000
 Hartree-type preconditioning will be used
 using additional bands           16
 real space projection scheme for non local part
 use partial core corrections
 calculate Harris-corrections to forces 
   (improved forces if not selfconsistent)
 use gradient corrections 
 use of overlap-Matrix (Vanderbilt PP)
 Gauss-broadening in eV      SIGMA  =   0.10


--------------------------------------------------------------------------------------------------------


  energy-cutoff  :      400.00
  volume of cell :      647.14
      direct lattice vectors                 reciprocal lattice vectors
    -3.151842525 -3.151842525  0.000000000    -0.158637367 -0.158637367  0.000000000
     4.457378445 -4.457378445  0.000000000     0.112173558 -0.112173558 -0.158637367
    16.285693819-16.285693819 23.031449071     0.000000000  0.000000000  0.043418892

  length of vectors
     4.457378445  6.303685050 32.571387638     0.224347116  0.224347116  0.043418892


 
 k-points in units of 2pi/SCALE and weight: read from INCAR                         
   0.00000000  0.00000000  0.00000000       0.111
  -0.05287912 -0.05287912  0.00000000       0.222
   0.03739119 -0.03739119 -0.05287912       0.222
  -0.01548794 -0.09027031 -0.05287912       0.444
 
 k-points in reciprocal lattice and weights: read from INCAR                         
   0.00000000  0.00000000  0.00000000       0.111
   0.33333333  0.00000000  0.00000000       0.222
   0.00000000  0.33333333  0.00000000       0.222
   0.33333333  0.33333333  0.00000000       0.444
 
 position of ions in fractional coordinates (direct lattice) 
   0.50000017  0.49999983  0.26051335
   0.00000010  0.49999983  0.32893812
   0.50000017  0.99999990  0.26051335
   0.50000017  0.49999983  0.39736286
   0.00000010  0.49999983  0.46578763
   0.50000017  0.00000010  0.39736286
   0.50000017  0.49999983  0.53421237
   0.00000010  0.49999983  0.60263714
   0.50000017  0.99999990  0.53421237
   0.50000017  0.49999983  0.67106188
   0.00000010  0.49999983  0.73948665
   0.50000017  0.00000010  0.67106188
   0.50000017  0.49999983  0.32893812
   0.50000017  0.49999983  0.46578763
   0.50000017  0.49999983  0.60263714
   0.50000017  0.49999983  0.73948665
   0.00000010  0.99999990  0.32893810
   0.00000010  0.00000010  0.46578761
   0.00000010  0.99999990  0.60263712
   0.00000010  0.99999990  0.73948663
 
 position of ions in cartesian coordinates  (Angst):
   4.89540732 -8.04725094  6.00000000
   7.58567359 -7.58567422  7.57592150
   7.12409687-10.27594050  6.00000000
   7.12409654-10.27594017  9.15184252
   9.81436282 -9.81436345 10.72776402
   4.89540854 -8.04725217  9.15184252
   9.35278576-12.50462939 12.30368505
  12.04305204-12.04305267 13.87960655
  11.58147532-14.73331894 12.30368505
  11.58147499-14.73331861 15.45552757
  14.27174126-14.27174189 17.03144907
   9.35278699-12.50463061 15.45552757
   6.00975210 -9.16159572  7.57592150
   8.23844132-11.39028494 10.72776402
  10.46713054-13.61897417 13.87960655
  12.69581976-15.84766339 17.03144907
   9.81436282 -9.81436345  7.57592103
   7.58567449 -7.58567512 10.72776355
  14.27174126-14.27174189 13.87960608
  16.50043048-16.50043111 17.03144860
 


--------------------------------------------------------------------------------------------------------


 k-point   1 :   0.0000 0.0000 0.0000  plane waves:   11795
 k-point   2 :   0.3333 0.0000 0.0000  plane waves:   11732
 k-point   3 :   0.0000 0.3333 0.0000  plane waves:   11758
 k-point   4 :   0.3333 0.3333 0.0000  plane waves:   11750

 maximum and minimum number of plane-waves per node :       751      722

 maximum number of plane-waves:     11795
 maximum index in each direction: 
   IXMAX=    7   IYMAX=   10   IZMAX=   53
   IXMIN=   -7   IYMIN=  -10   IZMIN=  -53


 real space projection operators:
  total allocation   :       1473.62 KBytes
  max/ min on nodes  :        130.48         66.25


 parallel 3D FFT for wavefunctions:
    minimum data exchange during FFTs selected (reduces bandwidth)
 parallel 3D FFT for charge:
    minimum data exchange during FFTs selected (reduces bandwidth)


 total amount of memory used by VASP MPI-rank0    33838. kBytes
=======================================================================

   base      :      30000. kBytes
   nonlr-proj:        872. kBytes
   fftplans  :        939. kBytes
   grid      :       1727. kBytes
   one-center:          6. kBytes
   wavefun   :        294. kBytes
 
     INWAV:  cpu time    0.0000: real time    0.0000
 Broyden mixing: mesh for mixing (old mesh)
   NGX = 15   NGY = 21   NGZ =107
  (NGX  = 48   NGY  = 64   NGZ  =320)
  gives a total of  33705 points

 initial charge density was supplied:
 charge density of overlapping atoms calculated
 number of electron      64.0000000 magnetization 
 keeping initial charge density in first step


--------------------------------------------------------------------------------------------------------


 Maximum index for non-local projection operator          163
 Maximum index for augmentation-charges          559 (set IRDMAX)


--------------------------------------------------------------------------------------------------------


 First call to EWALD:  gamma=   0.205
 Maximum number of real-space cells 5x 5x 1
 Maximum number of reciprocal cells 2x 2x 9

    FEWALD:  cpu time    0.0019: real time    0.0019


--------------------------------------- Iteration      1(   1)  ---------------------------------------


    POTLOK:  cpu time    0.0140: real time    0.0166
    SETDIJ:  cpu time    0.0408: real time    0.0409
     EDDAV:  cpu time    0.1591: real time    0.1677
       DOS:  cpu time    0.0011: real time    0.0012
    --------------------------------------------
      LOOP:  cpu time    0.2151: real time    0.2265

 eigenvalue-minimisations  :   400
 total energy-change (2. order) : 0.5030826E+03  (-0.1899735E+04)
 number of electron      64.0000000 magnetization 
 augmentation part       64.0000000 magnetization 

 DIPCOR: dipole corrections for dipol
 direction  3 min pos     3,
 dipolmoment           0.002614     -0.002614      0.003697 electrons x Angstroem
 Tr[quadrupol]      -403.396263

 energy correction for charged system         0.000000 eV
 dipol+quadrupol energy correction            0.000002 eV
 added-field ion interaction          0.000000 eV  (added to PSCEN)


 Free energy of the ion-electron system (eV)
  ---------------------------------------------------
  alpha Z        PSCENC =        -0.63992532
  Ewald energy   TEWEN  =      3205.49694447
  -Hartree energ DENC   =     -6266.86116544
  -exchange      EXHF   =         0.00000000
  -V(xc)+E(xc)   XCENC  =      -249.28700799
  PAW double counting   =      3165.81388983    -2723.36158796
  entropy T*S    EENTRO =        -0.03787642
  eigenvalues    EBANDS =       -57.85790021
  atomic energy  EATOM  =      3429.81723989
  Solvation  Ediel_sol  =         0.00000000
  ---------------------------------------------------
  free energy    TOTEN  =       503.08261084 eV

  energy without entropy =      503.12048726  energy(sigma->0) =      503.10154905


--------------------------------------------------------------------------------------------------------




--------------------------------------- Iteration      1(   2)  ---------------------------------------


     EDDAV:  cpu time    0.1734: real time    0.1755
       DOS:  cpu time    0.0002: real time    0.0002
    --------------------------------------------
      LOOP:  cpu time    0.1735: real time    0.1757

 eigenvalue-minimisations  :   512
 total energy-change (2. order) :-0.4715859E+03  (-0.4464472E+03)
 number of electron      64.0000000 magnetization 
 augmentation part       64.0000000 magnetization 

 DIPCOR: dipole corrections for dipol
 direction  3 min pos     3,
 dipolmoment           0.002614     -0.002614      0.003697 electrons x Angstroem
 Tr[quadrupol]      -403.396263

 energy correction for charged system         0.000000 eV
 dipol+quadrupol energy correction            0.000002 eV
 added-field ion interaction          0.000000 eV  (added to PSCEN)


 Free energy of the ion-electron system (eV)
  ---------------------------------------------------
  alpha Z        PSCENC =        -0.63992532
  Ewald energy   TEWEN  =      3205.49694447
  -Hartree energ DENC   =     -6266.86116544
  -exchange      EXHF   =         0.00000000
  -V(xc)+E(xc)   XCENC  =      -249.28700799
  PAW double counting   =      3165.81388983    -2723.36158796
  entropy T*S    EENTRO =        -0.00000000
  eigenvalues    EBANDS =      -529.48168995
  atomic energy  EATOM  =      3429.81723989
  Solvation  Ediel_sol  =         0.00000000
  ---------------------------------------------------
  free energy    TOTEN  =        31.49669752 eV

  energy without entropy =       31.49669752  energy(sigma->0) =       31.49669752


--------------------------------------------------------------------------------------------------------




--------------------------------------- Iteration      1(   3)  ---------------------------------------


     EDDAV:  cpu time    0.1548: real time    0.1557
       DOS:  cpu time    0.0002: real time    0.0002
    --------------------------------------------
      LOOP:  cpu time    0.1550: real time    0.1559

 eigenvalue-minimisations  :   528
 total energy-change (2. order) :-0.1190292E+03  (-0.1178833E+03)
 number of electron      64.0000000 magnetization 
 augmentation part       64.0000000 magnetization 

 DIPCOR: dipole corrections for dipol
 direction  3 min pos     3,
 dipolmoment           0.002614     -0.002614      0.003697 electrons x Angstroem
 Tr[quadrupol]      -403.396263

 energy correction for charged system         0.000000 eV
 dipol+quadrupol energy correction            0.000002 eV
 added-field ion interaction          0.000000 eV  (added to PSCEN)


 Free energy of the ion-electron system (eV)
  ---------------------------------------------------
  alpha Z        PSCENC =        -0.63992532
  Ewald energy   TEWEN  =      3205.49694447
  -Hartree energ DENC   =     -6266.86116544
  -exchange      EXHF   =         0.00000000
  -V(xc)+E(xc)   XCENC  =      -249.28700799
  PAW double counting   =      3165.81388983    -2723.36158796
  entropy T*S    EENTRO =        -0.00000000
  eigenvalues    EBANDS =      -648.51090867
  atomic energy  EATOM  =      3429.81723989
  Solvation  Ediel_sol  =         0.00000000
  ---------------------------------------------------
  free energy    TOTEN  =       -87.53252119 eV

  energy without entropy =      -87.53252119  energy(sigma->0) =      -87.53252119


--------------------------------------------------------------------------------------------------------




--------------------------------------- Iteration      1(   4)  ---------------------------------------


     EDDAV:  cpu time    0.1580: real time    0.1581
       DOS:  cpu time    0.0002: real time    0.0002
    --------------------------------------------
      LOOP:  cpu time    0.1582: real time    0.1583

 eigenvalue-minimisations  :   496
 total energy-change (2. order) :-0.3932874E+01  (-0.3918672E+01)
 number of electron      64.0000000 magnetization 
 augmentation part       64.0000000 magnetization 

 DIPCOR: dipole corrections for dipol
 direction  3 min pos     3,
 dipolmoment           0.002614     -0.002614      0.003697 electrons x Angstroem
 Tr[quadrupol]      -403.396263

 energy correction for charged system         0.000000 eV
 dipol+quadrupol energy correction            0.000002 eV
 added-field ion interaction          0.000000 eV  (added to PSCEN)


 Free energy of the ion-electron system (eV)
  ---------------------------------------------------
  alpha Z        PSCENC =        -0.63992532
  Ewald energy   TEWEN  =      3205.49694447
  -Hartree energ DENC   =     -6266.86116544
  -exchange      EXHF   =         0.00000000
  -V(xc)+E(xc)   XCENC  =      -249.28700799
  PAW double counting   =      3165.81388983    -2723.36158796
  entropy T*S    EENTRO =        -0.00000000
  eigenvalues    EBANDS =      -652.44378261
  atomic energy  EATOM  =      3429.81723989
  Solvation  Ediel_sol  =         0.00000000
  ---------------------------------------------------
  free energy    TOTEN  =       -91.46539514 eV

  energy without entropy =      -91.46539514  energy(sigma->0) =      -91.46539514


--------------------------------------------------------------------------------------------------------




--------------------------------------- Iteration      1(   5)  ---------------------------------------


     EDDAV:  cpu time    0.1398: real time    0.1402
       DOS:  cpu time    0.0002: real time    0.0002
    CHARGE:  cpu time    0.0152: real time    0.0158
    MIXING:  cpu time    0.0039: real time    0.0053
    --------------------------------------------
      LOOP:  cpu time    0.1591: real time    0.1615

 eigenvalue-minimisations  :   456
 total energy-change (2. order) :-0.1161596E+00  (-0.1160068E+00)
 number of electron      63.9999869 magnetization 
 augmentation part       -0.2592385 magnetization 

 DIPCOR: dipole corrections for dipol
 direction  3 min pos     3,
 dipolmoment           0.002614     -0.002614      0.003697 electrons x Angstroem
 Tr[quadrupol]      -403.396263

 energy correction for charged system         0.000000 eV
 dipol+quadrupol energy correction            0.000002 eV
 added-field ion interaction          0.000000 eV  (added to PSCEN)


 Broyden mixing:
  rms(total) = 0.21324E+01    rms(broyden)= 0.21317E+01
  rms(prec ) = 0.24094E+01
  weight for this iteration     100.00

 Free energy of the ion-electron system (eV)
  ---------------------------------------------------
  alpha Z        PSCENC =        -0.63992532
  Ewald energy   TEWEN  =      3205.49694447
  -Hartree energ DENC   =     -6266.86116544
  -exchange      EXHF   =         0.00000000
  -V(xc)+E(xc)   XCENC  =      -249.28700799
  PAW double counting   =      3165.81388983    -2723.36158796
  entropy T*S    EENTRO =        -0.00000000
  eigenvalues    EBANDS =      -652.55994220
  atomic energy  EATOM  =      3429.81723989
  Solvation  Ediel_sol  =         0.00000000
  ---------------------------------------------------
  free energy    TOTEN  =       -91.58155472 eV

  energy without entropy =      -91.58155472  energy(sigma->0) =      -91.58155472


--------------------------------------------------------------------------------------------------------




--------------------------------------- Iteration      1(   6)  ---------------------------------------


    POTLOK:  cpu time    0.0125: real time    0.0125
    SETDIJ:  cpu time    0.0404: real time    0.0404
    EDDIAG:  cpu time    0.0388: real time    0.0401
  RMM-DIIS:  cpu time    0.0437: real time    0.0441
    ORTHCH:  cpu time    0.0058: real time    0.0058
       DOS:  cpu time    0.0004: real time    0.0004
    CHARGE:  cpu time    0.0137: real time    0.0137
    MIXING:  cpu time    0.0016: real time    0.0023
    --------------------------------------------
      LOOP:  cpu time    0.1570: real time    0.1594

 eigenvalue-minimisations  :   495
 total energy-change (2. order) : 0.2130124E+02  (-0.5956224E+01)
 number of electron      63.9999886 magnetization 
 augmentation part       -1.5152622 magnetization 

 DIPCOR: dipole corrections for dipol
 direction  3 min pos     3,
 dipolmoment           0.781501     -0.781501      1.105210 electrons x Angstroem
 Tr[quadrupol]      -408.575659

 energy correction for charged system         0.000000 eV
 dipol+quadrupol energy correction            0.170777 eV
 added-field ion interaction          0.000000 eV  (added to PSCEN)


 Broyden mixing:
  rms(total) = 0.16650E+01    rms(broyden)= 0.16623E+01
  rms(prec ) = 0.18718E+01
  weight for this iteration     100.00

 eigenvalues of (default mixing * dielectric matrix)
  average eigenvalue GAMMA=   0.5735
  0.5735

 Free energy of the ion-electron system (eV)
  ---------------------------------------------------
  alpha Z        PSCENC =        -0.46914992
  Ewald energy   TEWEN  =      3205.49694447
  -Hartree energ DENC   =     -6447.62390225
  -exchange      EXHF   =         0.00000000
  -V(xc)+E(xc)   XCENC  =      -238.80997816
  PAW double counting   =      3688.11314391    -3247.98624743
  entropy T*S    EENTRO =        -0.08458491
  eigenvalues    EBANDS =      -458.73377799
  atomic energy  EATOM  =      3429.81723989
  Solvation  Ediel_sol  =         0.00000000
  ---------------------------------------------------
  free energy    TOTEN  =       -70.28031239 eV

  energy without entropy =      -70.19572748  energy(sigma->0) =      -70.23801993


--------------------------------------------------------------------------------------------------------




--------------------------------------- Iteration      1(   7)  ---------------------------------------


    POTLOK:  cpu time    0.0122: real time    0.0122
    SETDIJ:  cpu time    0.0405: real time    0.0405
    EDDIAG:  cpu time    0.0357: real time    0.0363
  RMM-DIIS:  cpu time    0.0393: real time    0.0393
    ORTHCH:  cpu time    0.0049: real time    0.0049
       DOS:  cpu time    0.0003: real time    0.0003
    CHARGE:  cpu time    0.0131: real time    0.0132
    MIXING:  cpu time    0.0006: real time    0.0006
    --------------------------------------------
      LOOP:  cpu time    0.1466: real time    0.1472

 eigenvalue-minimisations  :   510
 total energy-change (2. order) :-0.2448568E+01  (-0.1026382E+01)
 number of electron      63.9999900 magnetization 
 augmentation part       -1.0815887 magnetization 

 DIPCOR: dipole corrections for dipol
 direction  3 min pos     3,
 dipolmoment           0.244922     -0.244922      0.346372 electrons x Angstroem
 Tr[quadrupol]      -410.303380

 energy correction for charged system         0.000000 eV
 dipol+quadrupol energy correction            0.016774 eV
 added-field ion interaction          0.000000 eV  (added to PSCEN)


 Broyden mixing:
  rms(total) = 0.81192E+00    rms(broyden)= 0.80941E+00
  rms(prec ) = 0.10009E+01
  weight for this iteration     100.00

 eigenvalues of (default mixing * dielectric matrix)
  average eigenvalue GAMMA=   0.5786
  0.6394  0.5178

 Free energy of the ion-electron system (eV)
  ---------------------------------------------------
  alpha Z        PSCENC =        -0.62315363
  Ewald energy   TEWEN  =      3205.49694447
  -Hartree energ DENC   =     -6431.41113167
  -exchange      EXHF   =         0.00000000
  -V(xc)+E(xc)   XCENC  =      -239.75947463
  PAW double counting   =      3783.52150981    -3342.96865444
  entropy T*S    EENTRO =        -0.00000000
  eigenvalues    EBANDS =      -476.80216014
  atomic energy  EATOM  =      3429.81723989
  Solvation  Ediel_sol  =         0.00000000
  ---------------------------------------------------
  free energy    TOTEN  =       -72.72888033 eV

  energy without entropy =      -72.72888033  energy(sigma->0) =      -72.72888033


--------------------------------------------------------------------------------------------------------




--------------------------------------- Iteration      1(   8)  ---------------------------------------


    POTLOK:  cpu time    0.0128: real time    0.0128
    SETDIJ:  cpu time    0.0610: real time    0.0612
    EDDIAG:  cpu time    0.2294: real time    0.2912
  RMM-DIIS:  cpu time    0.0469: real time    0.0481
    ORTHCH:  cpu time    0.0044: real time    0.0084
       DOS:  cpu time    0.0034: real time    0.0040
    CHARGE:  cpu time    0.0150: real time    0.0150
    MIXING:  cpu time    0.0005: real time    0.0005
    --------------------------------------------
      LOOP:  cpu time    0.3734: real time    0.4412

 eigenvalue-minimisations  :   531
 total energy-change (2. order) : 0.2847740E+01  (-0.1667886E+00)
 number of electron      63.9999900 magnetization 
 augmentation part       -1.0793664 magnetization 

 DIPCOR: dipole corrections for dipol
 direction  3 min pos     3,
 dipolmoment           0.605963     -0.605963      0.856961 electrons x Angstroem
 Tr[quadrupol]      -412.401820

 energy correction for charged system         0.000000 eV
 dipol+quadrupol energy correction            0.102675 eV
 added-field ion interaction          0.000000 eV  (added to PSCEN)


 Broyden mixing:
  rms(total) = 0.62799E+00    rms(broyden)= 0.62785E+00
  rms(prec ) = 0.80868E+00
  weight for this iteration     100.00

 eigenvalues of (default mixing * dielectric matrix)
  average eigenvalue GAMMA=   1.1149
  0.5275  1.2316  1.5856

 Free energy of the ion-electron system (eV)
  ---------------------------------------------------
  alpha Z        PSCENC =        -0.53725271
  Ewald energy   TEWEN  =      3205.49694447
  -Hartree energ DENC   =     -6452.16674885
  -exchange      EXHF   =         0.00000000
  -V(xc)+E(xc)   XCENC  =      -238.99409282
  PAW double counting   =      3887.09150074    -3446.49197653
  entropy T*S    EENTRO =        -0.00000000
  eigenvalues    EBANDS =      -454.09675434
  atomic energy  EATOM  =      3429.81723989
  Solvation  Ediel_sol  =         0.00000000
  ---------------------------------------------------
  free energy    TOTEN  =       -69.88114016 eV

  energy without entropy =      -69.88114016  energy(sigma->0) =      -69.88114016


--------------------------------------------------------------------------------------------------------




--------------------------------------- Iteration      1(   9)  ---------------------------------------


    POTLOK:  cpu time    0.0163: real time    0.0215
    SETDIJ:  cpu time    0.0438: real time    0.0438
    EDDIAG:  cpu time    0.0384: real time    0.0402
  RMM-DIIS:  cpu time    0.0456: real time    0.0456
    ORTHCH:  cpu time    0.0051: real time    0.0051
       DOS:  cpu time    0.0004: real time    0.0004
    CHARGE:  cpu time    0.0134: real time    0.0134
    MIXING:  cpu time    0.0007: real time    0.0007
    --------------------------------------------
      LOOP:  cpu time    0.1635: real time    0.1707

 eigenvalue-minimisations  :   532
 total energy-change (2. order) :-0.1849048E+02  (-0.4122625E+00)
 number of electron      63.9999903 magnetization 
 augmentation part       -1.9569908 magnetization 

 DIPCOR: dipole corrections for dipol
 direction  3 min pos     3,
 dipolmoment           1.799918     -1.799918      2.545468 electrons x Angstroem
 Tr[quadrupol]      -419.259789

 energy correction for charged system         0.000000 eV
 dipol+quadrupol energy correction            0.905891 eV
 added-field ion interaction          0.000000 eV  (added to PSCEN)


 Broyden mixing:
  rms(total) = 0.33269E+01    rms(broyden)= 0.33262E+01
  rms(prec ) = 0.44599E+01
  weight for this iteration     100.00

 eigenvalues of (default mixing * dielectric matrix)
  average eigenvalue GAMMA=   0.8400
  1.5542  1.2460  0.5118  0.0478

 Free energy of the ion-electron system (eV)
  ---------------------------------------------------
  alpha Z        PSCENC =         0.26596387
  Ewald energy   TEWEN  =      3205.49694447
  -Hartree energ DENC   =     -6506.73949743
  -exchange      EXHF   =         0.00000000
  -V(xc)+E(xc)   XCENC  =      -237.33803891
  PAW double counting   =      4117.28116552    -3676.58407722
  entropy T*S    EENTRO =        -0.01254822
  eigenvalues    EBANDS =      -420.55877507
  atomic energy  EATOM  =      3429.81723989
  Solvation  Ediel_sol  =         0.00000000
  ---------------------------------------------------
  free energy    TOTEN  =       -88.37162311 eV

  energy without entropy =      -88.35907490  energy(sigma->0) =      -88.36534901


--------------------------------------------------------------------------------------------------------




--------------------------------------- Iteration      1(  10)  ---------------------------------------


    POTLOK:  cpu time    0.0128: real time    0.0128
    SETDIJ:  cpu time    0.0404: real time    0.0404
    EDDIAG:  cpu time    0.0339: real time    0.0361
  RMM-DIIS:  cpu time    0.0417: real time    0.0417
    ORTHCH:  cpu time    0.0050: real time    0.0050
       DOS:  cpu time    0.0004: real time    0.0004
    CHARGE:  cpu time    0.0136: real time    0.0136
    MIXING:  cpu time    0.0006: real time    0.0006
    --------------------------------------------
      LOOP:  cpu time    0.1484: real time    0.1507

 eigenvalue-minimisations  :   509
 total energy-change (2. order) : 0.1339648E+02  (-0.6176106E-01)
 number of electron      63.9999886 magnetization 
 augmentation part       -1.8265401 magnetization 

 DIPCOR: dipole corrections for dipol
 direction  3 min pos     3,
 dipolmoment           1.419125     -1.419125      2.006946 electrons x Angstroem
 Tr[quadrupol]      -418.473507

 energy correction for charged system         0.000000 eV
 dipol+quadrupol energy correction            0.563135 eV
 added-field ion interaction          0.000000 eV  (added to PSCEN)


 Broyden mixing:
  rms(total) = 0.27071E+01    rms(broyden)= 0.27065E+01
  rms(prec ) = 0.36005E+01
  weight for this iteration     100.00

 eigenvalues of (default mixing * dielectric matrix)
  average eigenvalue GAMMA=   0.7282
  1.5725  1.2280  0.5034  0.1685  0.1685

 Free energy of the ion-electron system (eV)
  ---------------------------------------------------
  alpha Z        PSCENC =        -0.07679266
  Ewald energy   TEWEN  =      3205.49694447
  -Hartree energ DENC   =     -6493.43074112
  -exchange      EXHF   =         0.00000000
  -V(xc)+E(xc)   XCENC  =      -237.73022312
  PAW double counting   =      4112.70891853    -3671.93676582
  entropy T*S    EENTRO =        -0.05280195
  eigenvalues    EBANDS =      -419.77092071
  atomic energy  EATOM  =      3429.81723989
  Solvation  Ediel_sol  =         0.00000000
  ---------------------------------------------------
  free energy    TOTEN  =       -74.97514248 eV

  energy without entropy =      -74.92234053  energy(sigma->0) =      -74.94874151


--------------------------------------------------------------------------------------------------------




--------------------------------------- Iteration      1(  11)  ---------------------------------------


    POTLOK:  cpu time    0.0125: real time    0.0125
    SETDIJ:  cpu time    0.0404: real time    0.0404
    EDDIAG:  cpu time    0.0413: real time    0.0413
  RMM-DIIS:  cpu time    0.0405: real time    0.0405
    ORTHCH:  cpu time    0.0049: real time    0.0050
       DOS:  cpu time    0.0004: real time    0.0004
    CHARGE:  cpu time    0.0131: real time    0.0131
    MIXING:  cpu time    0.0006: real time    0.0006
    --------------------------------------------
      LOOP:  cpu time    0.1537: real time    0.1538

 eigenvalue-minimisations  :   514
 total energy-change (2. order) : 0.5011180E+01  (-0.4933260E-01)
 number of electron      63.9999885 magnetization 
 augmentation part       -1.5075058 magnetization 

 DIPCOR: dipole corrections for dipol
 direction  3 min pos     3,
 dipolmoment           1.210928     -1.210928      1.712511 electrons x Angstroem
 Tr[quadrupol]      -418.094890

 energy correction for charged system         0.000000 eV
 dipol+quadrupol energy correction            0.410022 eV
 added-field ion interaction          0.000000 eV  (added to PSCEN)


 Broyden mixing:
  rms(total) = 0.14683E+01    rms(broyden)= 0.14672E+01
  rms(prec ) = 0.19004E+01
  weight for this iteration     100.00

 eigenvalues of (default mixing * dielectric matrix)
  average eigenvalue GAMMA=   0.6611
  1.5421  1.2067  0.3548  0.3548  0.2541  0.2541

 Free energy of the ion-electron system (eV)
  ---------------------------------------------------
  alpha Z        PSCENC =        -0.22990476
  Ewald energy   TEWEN  =      3205.49694447
  -Hartree energ DENC   =     -6486.32830329
  -exchange      EXHF   =         0.00000000
  -V(xc)+E(xc)   XCENC  =      -237.93894676
  PAW double counting   =      4113.28896587    -3672.45989585
  entropy T*S    EENTRO =        -0.09247609
  eigenvalues    EBANDS =      -421.51758589
  atomic energy  EATOM  =      3429.81723989
  Solvation  Ediel_sol  =         0.00000000
  ---------------------------------------------------
  free energy    TOTEN  =       -69.96396242 eV

  energy without entropy =      -69.87148633  energy(sigma->0) =      -69.91772437


--------------------------------------------------------------------------------------------------------




--------------------------------------- Iteration      1(  12)  ---------------------------------------


    POTLOK:  cpu time    0.0120: real time    0.0120
    SETDIJ:  cpu time    0.0408: real time    0.0408
    EDDIAG:  cpu time    0.0359: real time    0.0366
  RMM-DIIS:  cpu time    0.0464: real time    0.0465
    ORTHCH:  cpu time    0.0046: real time    0.0046
       DOS:  cpu time    0.0004: real time    0.0004
    CHARGE:  cpu time    0.0134: real time    0.0134
    MIXING:  cpu time    0.0008: real time    0.0008
    --------------------------------------------
      LOOP:  cpu time    0.1543: real time    0.1551

 eigenvalue-minimisations  :   528
 total energy-change (2. order) : 0.1952954E+01  (-0.7539349E-01)
 number of electron      63.9999892 magnetization 
 augmentation part       -1.1543436 magnetization 

 DIPCOR: dipole corrections for dipol
 direction  3 min pos     3,
 dipolmoment           0.993699     -0.993699      1.405302 electrons x Angstroem
 Tr[quadrupol]      -417.552207

 energy correction for charged system         0.000000 eV
 dipol+quadrupol energy correction            0.276109 eV
 added-field ion interaction          0.000000 eV  (added to PSCEN)


 Broyden mixing:
  rms(total) = 0.19441E+00    rms(broyden)= 0.18602E+00
  rms(prec ) = 0.20101E+00
  weight for this iteration     100.00

 eigenvalues of (default mixing * dielectric matrix)
  average eigenvalue GAMMA=   0.7700
  2.4430  0.8410  0.8410  0.4431  0.3236  0.2493  0.2493

 Free energy of the ion-electron system (eV)
  ---------------------------------------------------
  alpha Z        PSCENC =        -0.36381845
  Ewald energy   TEWEN  =      3205.49694447
  -Hartree energ DENC   =     -6478.46298258
  -exchange      EXHF   =         0.00000000
  -V(xc)+E(xc)   XCENC  =      -238.13204510
  PAW double counting   =      4109.90600771    -3669.02260995
  entropy T*S    EENTRO =        -0.06171875
  eigenvalues    EBANDS =      -427.18802576
  atomic energy  EATOM  =      3429.81723989
  Solvation  Ediel_sol  =         0.00000000
  ---------------------------------------------------
  free energy    TOTEN  =       -68.01100852 eV

  energy without entropy =      -67.94928977  energy(sigma->0) =      -67.98014915


--------------------------------------------------------------------------------------------------------




--------------------------------------- Iteration      1(  13)  ---------------------------------------


    POTLOK:  cpu time    0.0123: real time    0.0123
    SETDIJ:  cpu time    0.0417: real time    0.0420
    EDDIAG:  cpu time    0.0421: real time    0.0432
  RMM-DIIS:  cpu time    0.0449: real time    0.0450
    ORTHCH:  cpu time    0.0050: real time    0.0050
       DOS:  cpu time    0.0006: real time    0.0006
    CHARGE:  cpu time    0.0123: real time    0.0123
    MIXING:  cpu time    0.0007: real time    0.0007
    --------------------------------------------
      LOOP:  cpu time    0.1595: real time    0.1611

 eigenvalue-minimisations  :   553
 total energy-change (2. order) :-0.2809702E+00  (-0.4056632E-01)
 number of electron      63.9999905 magnetization 
 augmentation part       -1.1158957 magnetization 

 DIPCOR: dipole corrections for dipol
 direction  3 min pos     3,
 dipolmoment           0.952084     -0.952084      1.346451 electrons x Angstroem
 Tr[quadrupol]      -419.181652

 energy correction for charged system         0.000000 eV
 dipol+quadrupol energy correction            0.253467 eV
 added-field ion interaction          0.000000 eV  (added to PSCEN)


 Broyden mixing:
  rms(total) = 0.51062E+00    rms(broyden)= 0.50786E+00
  rms(prec ) = 0.62171E+00
  weight for this iteration     100.00

 eigenvalues of (default mixing * dielectric matrix)
  average eigenvalue GAMMA=   0.6764
  2.3812  0.8263  0.8263  0.4673  0.2461  0.2461  0.3031  0.1144

 Free energy of the ion-electron system (eV)
  ---------------------------------------------------
  alpha Z        PSCENC =        -0.38646009
  Ewald energy   TEWEN  =      3205.49694447
  -Hartree energ DENC   =     -6485.25261429
  -exchange      EXHF   =         0.00000000
  -V(xc)+E(xc)   XCENC  =      -237.89429400
  PAW double counting   =      4164.06157750    -3723.12198519
  entropy T*S    EENTRO =        -0.04333320
  eigenvalues    EBANDS =      -420.96905386
  atomic energy  EATOM  =      3429.81723989
  Solvation  Ediel_sol  =         0.00000000
  ---------------------------------------------------
  free energy    TOTEN  =       -68.29197877 eV

  energy without entropy =      -68.24864558  energy(sigma->0) =      -68.27031217


--------------------------------------------------------------------------------------------------------




--------------------------------------- Iteration      1(  14)  ---------------------------------------


    POTLOK:  cpu time    0.0127: real time    0.0163
    SETDIJ:  cpu time    0.0411: real time    0.0411
    EDDIAG:  cpu time    0.0366: real time    0.0370
  RMM-DIIS:  cpu time    0.0424: real time    0.0424
    ORTHCH:  cpu time    0.0046: real time    0.0046
       DOS:  cpu time    0.0004: real time    0.0004
    CHARGE:  cpu time    0.0135: real time    0.0135
    MIXING:  cpu time    0.0006: real time    0.0006
    --------------------------------------------
      LOOP:  cpu time    0.1519: real time    0.1560

 eigenvalue-minimisations  :   537
 total energy-change (2. order) : 0.1221531E+00  (-0.3118347E-02)
 number of electron      63.9999901 magnetization 
 augmentation part       -1.1074783 magnetization 

 DIPCOR: dipole corrections for dipol
 direction  3 min pos     3,
 dipolmoment           0.963477     -0.963477      1.362562 electrons x Angstroem
 Tr[quadrupol]      -419.044492

 energy correction for charged system         0.000000 eV
 dipol+quadrupol energy correction            0.259569 eV
 added-field ion interaction          0.000000 eV  (added to PSCEN)


 Broyden mixing:
  rms(total) = 0.39091E+00    rms(broyden)= 0.39084E+00
  rms(prec ) = 0.50097E+00
  weight for this iteration     100.00

 eigenvalues of (default mixing * dielectric matrix)
  average eigenvalue GAMMA=   0.7058
  2.1431  1.2459  0.7919  0.7919  0.3742  0.3742  0.2552  0.2552  0.1204

 Free energy of the ion-electron system (eV)
  ---------------------------------------------------
  alpha Z        PSCENC =        -0.38035808
  Ewald energy   TEWEN  =      3205.49694447
  -Hartree energ DENC   =     -6484.72707177
  -exchange      EXHF   =         0.00000000
  -V(xc)+E(xc)   XCENC  =      -237.91728074
  PAW double counting   =      4160.78360818    -3719.84747353
  entropy T*S    EENTRO =        -0.04562840
  eigenvalues    EBANDS =      -421.34980574
  atomic energy  EATOM  =      3429.81723989
  Solvation  Ediel_sol  =         0.00000000
  ---------------------------------------------------
  free energy    TOTEN  =       -68.16982572 eV

  energy without entropy =      -68.12419732  energy(sigma->0) =      -68.14701152


--------------------------------------------------------------------------------------------------------




--------------------------------------- Iteration      1(  15)  ---------------------------------------


    POTLOK:  cpu time    0.0118: real time    0.0118
    SETDIJ:  cpu time    0.0407: real time    0.0408
    EDDIAG:  cpu time    0.0355: real time    0.0362
  RMM-DIIS:  cpu time    0.0417: real time    0.0417
    ORTHCH:  cpu time    0.0110: real time    0.0110
       DOS:  cpu time    0.0007: real time    0.0007
    CHARGE:  cpu time    0.0132: real time    0.0132
    MIXING:  cpu time    0.0009: real time    0.0009
    --------------------------------------------
      LOOP:  cpu time    0.1556: real time    0.1563

 eigenvalue-minimisations  :   514
 total energy-change (2. order) : 0.1488444E+00  (-0.8838772E-02)
 number of electron      63.9999894 magnetization 
 augmentation part       -1.1549116 magnetization 

 DIPCOR: dipole corrections for dipol
 direction  3 min pos     3,
 dipolmoment           1.018422     -1.018422      1.440266 electrons x Angstroem
 Tr[quadrupol]      -419.378991

 energy correction for charged system         0.000000 eV
 dipol+quadrupol energy correction            0.290019 eV
 added-field ion interaction          0.000000 eV  (added to PSCEN)


 Broyden mixing:
  rms(total) = 0.10942E+00    rms(broyden)= 0.10619E+00
  rms(prec ) = 0.12818E+00
  weight for this iteration     100.00

 eigenvalues of (default mixing * dielectric matrix)
  average eigenvalue GAMMA=   0.7928
  2.2762  1.6685  1.0144  1.0144  0.4988  0.4082  0.4082  0.2520  0.2520  0.1350

 Free energy of the ion-electron system (eV)
  ---------------------------------------------------
  alpha Z        PSCENC =        -0.34990853
  Ewald energy   TEWEN  =      3205.49694447
  -Hartree energ DENC   =     -6485.50245932
  -exchange      EXHF   =         0.00000000
  -V(xc)+E(xc)   XCENC  =      -237.93967099
  PAW double counting   =      4152.06615919    -3711.13317054
  entropy T*S    EENTRO =        -0.05653164
  eigenvalues    EBANDS =      -420.41958386
  atomic energy  EATOM  =      3429.81723989
  Solvation  Ediel_sol  =         0.00000000
  ---------------------------------------------------
  free energy    TOTEN  =       -68.02098134 eV

  energy without entropy =      -67.96444970  energy(sigma->0) =      -67.99271552


--------------------------------------------------------------------------------------------------------




--------------------------------------- Iteration      1(  16)  ---------------------------------------


    POTLOK:  cpu time    0.0118: real time    0.0118
    SETDIJ:  cpu time    0.0407: real time    0.0407
    EDDIAG:  cpu time    0.0356: real time    0.0360
  RMM-DIIS:  cpu time    0.0384: real time    0.0384
    ORTHCH:  cpu time    0.0049: real time    0.0049
       DOS:  cpu time    0.0006: real time    0.0006
    CHARGE:  cpu time    0.0128: real time    0.0128
    MIXING:  cpu time    0.0009: real time    0.0009
    --------------------------------------------
      LOOP:  cpu time    0.1457: real time    0.1461

 eigenvalue-minimisations  :   504
 total energy-change (2. order) :-0.2035529E-01  (-0.1379963E-02)
 number of electron      63.9999895 magnetization 
 augmentation part       -1.1481788 magnetization 

 DIPCOR: dipole corrections for dipol
 direction  3 min pos     3,
 dipolmoment           1.013637     -1.013637      1.433499 electrons x Angstroem
 Tr[quadrupol]      -420.542639

 energy correction for charged system         0.000000 eV
 dipol+quadrupol energy correction            0.287300 eV
 added-field ion interaction          0.000000 eV  (added to PSCEN)


 Broyden mixing:
  rms(total) = 0.11024E+00    rms(broyden)= 0.11021E+00
  rms(prec ) = 0.15192E+00
  weight for this iteration     100.00

 eigenvalues of (default mixing * dielectric matrix)
  average eigenvalue GAMMA=   0.8280
  2.2475  2.2475  1.0406  0.7541  0.7541  0.6318  0.2520  0.2520  0.3969  0.3969
  0.1344

 Free energy of the ion-electron system (eV)
  ---------------------------------------------------
  alpha Z        PSCENC =        -0.35262727
  Ewald energy   TEWEN  =      3205.49694447
  -Hartree energ DENC   =     -6488.89294060
  -exchange      EXHF   =         0.00000000
  -V(xc)+E(xc)   XCENC  =      -237.87037363
  PAW double counting   =      4154.13330011    -3713.19032045
  entropy T*S    EENTRO =        -0.05777252
  eigenvalues    EBANDS =      -417.12478663
  atomic energy  EATOM  =      3429.81723989
  Solvation  Ediel_sol  =         0.00000000
  ---------------------------------------------------
  free energy    TOTEN  =       -68.04133663 eV

  energy without entropy =      -67.98356412  energy(sigma->0) =      -68.01245037


--------------------------------------------------------------------------------------------------------




--------------------------------------- Iteration      1(  17)  ---------------------------------------


    POTLOK:  cpu time    0.0115: real time    0.0115
    SETDIJ:  cpu time    0.0408: real time    0.0408
    EDDIAG:  cpu time    0.0359: real time    0.0365
  RMM-DIIS:  cpu time    0.0394: real time    0.0394
    ORTHCH:  cpu time    0.0045: real time    0.0045
       DOS:  cpu time    0.0004: real time    0.0004
    CHARGE:  cpu time    0.0132: real time    0.0132
    MIXING:  cpu time    0.0009: real time    0.0009
    --------------------------------------------
      LOOP:  cpu time    0.1468: real time    0.1473

 eigenvalue-minimisations  :   504
 total energy-change (2. order) :-0.2295919E-02  (-0.7892028E-03)
 number of electron      63.9999895 magnetization 
 augmentation part       -1.1464032 magnetization 

 DIPCOR: dipole corrections for dipol
 direction  3 min pos     3,
 dipolmoment           1.024288     -1.024288      1.448563 electrons x Angstroem
 Tr[quadrupol]      -421.182643

 energy correction for charged system         0.000000 eV
 dipol+quadrupol energy correction            0.293370 eV
 added-field ion interaction          0.000000 eV  (added to PSCEN)


 Broyden mixing:
  rms(total) = 0.13824E+00    rms(broyden)= 0.13821E+00
  rms(prec ) = 0.19021E+00
  weight for this iteration     100.00

 eigenvalues of (default mixing * dielectric matrix)
  average eigenvalue GAMMA=   0.8890
  2.4370  2.4370  1.0712  1.0712  0.8167  0.8167  0.2520  0.2520  0.5756  0.4020
  0.4020  0.1345

 Free energy of the ion-electron system (eV)
  ---------------------------------------------------
  alpha Z        PSCENC =        -0.34655753
  Ewald energy   TEWEN  =      3205.49694447
  -Hartree energ DENC   =     -6490.63567782
  -exchange      EXHF   =         0.00000000
  -V(xc)+E(xc)   XCENC  =      -237.85121162
  PAW double counting   =      4151.88423932    -3710.94409489
  entropy T*S    EENTRO =        -0.05908221
  eigenvalues    EBANDS =      -415.40543215
  atomic energy  EATOM  =      3429.81723989
  Solvation  Ediel_sol  =         0.00000000
  ---------------------------------------------------
  free energy    TOTEN  =       -68.04363255 eV

  energy without entropy =      -67.98455034  energy(sigma->0) =      -68.01409145


--------------------------------------------------------------------------------------------------------




--------------------------------------- Iteration      1(  18)  ---------------------------------------


    POTLOK:  cpu time    0.0118: real time    0.0118
    SETDIJ:  cpu time    0.0408: real time    0.0408
    EDDIAG:  cpu time    0.0363: real time    0.0363
  RMM-DIIS:  cpu time    0.0412: real time    0.0412
    ORTHCH:  cpu time    0.0049: real time    0.0049
       DOS:  cpu time    0.0006: real time    0.0006
    CHARGE:  cpu time    0.0126: real time    0.0126
    MIXING:  cpu time    0.0009: real time    0.0009
    --------------------------------------------
      LOOP:  cpu time    0.1491: real time    0.1490

 eigenvalue-minimisations  :   514
 total energy-change (2. order) : 0.4889125E-01  (-0.1922308E-03)
 number of electron      63.9999895 magnetization 
 augmentation part       -1.1595379 magnetization 

 DIPCOR: dipole corrections for dipol
 direction  3 min pos     3,
 dipolmoment           1.068772     -1.068772      1.511472 electrons x Angstroem
 Tr[quadrupol]      -421.986417

 energy correction for charged system         0.000000 eV
 dipol+quadrupol energy correction            0.319404 eV
 added-field ion interaction          0.000000 eV  (added to PSCEN)


 Broyden mixing:
  rms(total) = 0.92547E-01    rms(broyden)= 0.92506E-01
  rms(prec ) = 0.12257E+00
  weight for this iteration     100.00

 eigenvalues of (default mixing * dielectric matrix)
  average eigenvalue GAMMA=   0.9616
  2.6129  2.6129  1.4460  1.4460  0.9522  0.7013  0.7013  0.2520  0.2520  0.5900
  0.3998  0.3998  0.1345

 Free energy of the ion-electron system (eV)
  ---------------------------------------------------
  alpha Z        PSCENC =        -0.32052276
  Ewald energy   TEWEN  =      3205.49694447
  -Hartree energ DENC   =     -6492.77816710
  -exchange      EXHF   =         0.00000000
  -V(xc)+E(xc)   XCENC  =      -237.84815095
  PAW double counting   =      4149.09362073    -3708.15465878
  entropy T*S    EENTRO =        -0.05712652
  eigenvalues    EBANDS =      -413.24392028
  atomic energy  EATOM  =      3429.81723989
  Solvation  Ediel_sol  =         0.00000000
  ---------------------------------------------------
  free energy    TOTEN  =       -67.99474131 eV

  energy without entropy =      -67.93761479  energy(sigma->0) =      -67.96617805


--------------------------------------------------------------------------------------------------------




--------------------------------------- Iteration      1(  19)  ---------------------------------------


    POTLOK:  cpu time    0.0116: real time    0.0116
    SETDIJ:  cpu time    0.0409: real time    0.0409
    EDDIAG:  cpu time    0.0359: real time    0.0365
  RMM-DIIS:  cpu time    0.0415: real time    0.0415
    ORTHCH:  cpu time    0.0045: real time    0.0045
       DOS:  cpu time    0.0004: real time    0.0004
    CHARGE:  cpu time    0.0134: real time    0.0135
    MIXING:  cpu time    0.0009: real time    0.0009
    --------------------------------------------
      LOOP:  cpu time    0.1491: real time    0.1497

 eigenvalue-minimisations  :   528
 total energy-change (2. order) : 0.4986243E-01  (-0.4571957E-03)
 number of electron      63.9999894 magnetization 
 augmentation part       -1.1923552 magnetization 

 DIPCOR: dipole corrections for dipol
 direction  3 min pos     3,
 dipolmoment           1.125832     -1.125832      1.592167 electrons x Angstroem
 Tr[quadrupol]      -422.843813

 energy correction for charged system         0.000000 eV
 dipol+quadrupol energy correction            0.354420 eV
 added-field ion interaction          0.000000 eV  (added to PSCEN)


 Broyden mixing:
  rms(total) = 0.77139E-01    rms(broyden)= 0.76938E-01
  rms(prec ) = 0.84932E-01
  weight for this iteration     100.00

 eigenvalues of (default mixing * dielectric matrix)
  average eigenvalue GAMMA=   0.9084
  2.6240  2.6240  1.4808  1.4808  0.9605  0.6889  0.6889  0.2520  0.2520  0.5864
  0.3993  0.3993  0.1345  0.1457

 Free energy of the ion-electron system (eV)
  ---------------------------------------------------
  alpha Z        PSCENC =        -0.28550729
  Ewald energy   TEWEN  =      3205.49694447
  -Hartree energ DENC   =     -6495.50489232
  -exchange      EXHF   =         0.00000000
  -V(xc)+E(xc)   XCENC  =      -237.82022936
  PAW double counting   =      4147.73416037    -3706.79983339
  entropy T*S    EENTRO =        -0.08125152
  eigenvalues    EBANDS =      -410.50150973
  atomic energy  EATOM  =      3429.81723989
  Solvation  Ediel_sol  =         0.00000000
  ---------------------------------------------------
  free energy    TOTEN  =       -67.94487888 eV

  energy without entropy =      -67.86362736  energy(sigma->0) =      -67.90425312


--------------------------------------------------------------------------------------------------------




--------------------------------------- Iteration      1(  20)  ---------------------------------------


    POTLOK:  cpu time    0.0120: real time    0.0120
    SETDIJ:  cpu time    0.0409: real time    0.0409
    EDDIAG:  cpu time    0.0694: real time    0.0858
  RMM-DIIS:  cpu time    0.0460: real time    0.0473
    ORTHCH:  cpu time    0.0637: real time    0.1164
       DOS:  cpu time    0.0041: real time    0.0047
    CHARGE:  cpu time    0.0173: real time    0.0183
    MIXING:  cpu time    0.0010: real time    0.0010
    --------------------------------------------
      LOOP:  cpu time    0.2544: real time    0.3263

 eigenvalue-minimisations  :   556
 total energy-change (2. order) : 0.4948969E-02  (-0.6176263E-04)
 number of electron      63.9999894 magnetization 
 augmentation part       -1.1974054 magnetization 

 DIPCOR: dipole corrections for dipol
 direction  3 min pos     3,
 dipolmoment           1.131756     -1.131756      1.600545 electrons x Angstroem
 Tr[quadrupol]      -422.890395

 energy correction for charged system         0.000000 eV
 dipol+quadrupol energy correction            0.358159 eV
 added-field ion interaction          0.000000 eV  (added to PSCEN)


 Broyden mixing:
  rms(total) = 0.81958E-01    rms(broyden)= 0.81949E-01
  rms(prec ) = 0.95227E-01
  weight for this iteration     100.00

 eigenvalues of (default mixing * dielectric matrix)
  average eigenvalue GAMMA=   0.9616
  2.6160  2.6160  1.7825  1.2041  1.0920  1.0920  0.7489  0.7489  0.2520  0.2520
  0.5925  0.4005  0.4005  0.4912  0.1345

 Free energy of the ion-electron system (eV)
  ---------------------------------------------------
  alpha Z        PSCENC =        -0.28176787
  Ewald energy   TEWEN  =      3205.49694447
  -Hartree energ DENC   =     -6495.60653396
  -exchange      EXHF   =         0.00000000
  -V(xc)+E(xc)   XCENC  =      -237.81898534
  PAW double counting   =      4147.02059895    -3706.08594527
  entropy T*S    EENTRO =        -0.08351576
  eigenvalues    EBANDS =      -410.39796501
  atomic energy  EATOM  =      3429.81723989
  Solvation  Ediel_sol  =         0.00000000
  ---------------------------------------------------
  free energy    TOTEN  =       -67.93992991 eV

  energy without entropy =      -67.85641414  energy(sigma->0) =      -67.89817202


--------------------------------------------------------------------------------------------------------




--------------------------------------- Iteration      1(  21)  ---------------------------------------


    POTLOK:  cpu time    0.0225: real time    0.0265
    SETDIJ:  cpu time    0.0434: real time    0.0434
    EDDIAG:  cpu time    0.0349: real time    0.0401
  RMM-DIIS:  cpu time    0.0453: real time    0.0453
    ORTHCH:  cpu time    0.0049: real time    0.0049
       DOS:  cpu time    0.0006: real time    0.0006
    CHARGE:  cpu time    0.0127: real time    0.0127
    MIXING:  cpu time    0.0009: real time    0.0009
    --------------------------------------------
      LOOP:  cpu time    0.1653: real time    0.1745

 eigenvalue-minimisations  :   558
 total energy-change (2. order) :-0.1747540E-03  (-0.1151175E-04)
 number of electron      63.9999894 magnetization 
 augmentation part       -1.1981794 magnetization 

 DIPCOR: dipole corrections for dipol
 direction  3 min pos     3,
 dipolmoment           1.131383     -1.131383      1.600016 electrons x Angstroem
 Tr[quadrupol]      -422.902742

 energy correction for charged system         0.000000 eV
 dipol+quadrupol energy correction            0.357923 eV
 added-field ion interaction          0.000000 eV  (added to PSCEN)


 Broyden mixing:
  rms(total) = 0.85459E-01    rms(broyden)= 0.85458E-01
  rms(prec ) = 0.99282E-01
  weight for this iteration     100.00

 eigenvalues of (default mixing * dielectric matrix)
  average eigenvalue GAMMA=   0.9438
  2.7929  2.1420  2.1420  0.9320  0.9320  1.0858  1.0858  0.7441  0.7441  0.2520
  0.2520  0.5831  0.4005  0.4005  0.4771  0.1345

 Free energy of the ion-electron system (eV)
  ---------------------------------------------------
  alpha Z        PSCENC =        -0.28200417
  Ewald energy   TEWEN  =      3205.49694447
  -Hartree energ DENC   =     -6495.69130416
  -exchange      EXHF   =         0.00000000
  -V(xc)+E(xc)   XCENC  =      -237.81708671
  PAW double counting   =      4147.35421076    -3706.42024119
  entropy T*S    EENTRO =        -0.08354171
  eigenvalues    EBANDS =      -410.31432184
  atomic energy  EATOM  =      3429.81723989
  Solvation  Ediel_sol  =         0.00000000
  ---------------------------------------------------
  free energy    TOTEN  =       -67.94010466 eV

  energy without entropy =      -67.85656295  energy(sigma->0) =      -67.89833380


--------------------------------------------------------------------------------------------------------




--------------------------------------- Iteration      1(  22)  ---------------------------------------


    POTLOK:  cpu time    0.0116: real time    0.0116
    SETDIJ:  cpu time    0.0408: real time    0.0408
    EDDIAG:  cpu time    0.0359: real time    0.0365
  RMM-DIIS:  cpu time    0.0456: real time    0.0456
    ORTHCH:  cpu time    0.0045: real time    0.0045
       DOS:  cpu time    0.0005: real time    0.0005
    CHARGE:  cpu time    0.0133: real time    0.0133
    MIXING:  cpu time    0.0010: real time    0.0010
    --------------------------------------------
      LOOP:  cpu time    0.1532: real time    0.1538

 eigenvalue-minimisations  :   568
 total energy-change (2. order) : 0.8248962E-02  (-0.1131729E-03)
 number of electron      63.9999894 magnetization 
 augmentation part       -1.2045536 magnetization 

 DIPCOR: dipole corrections for dipol
 direction  3 min pos     3,
 dipolmoment           1.145206     -1.145206      1.619566 electrons x Angstroem
 Tr[quadrupol]      -422.951817

 energy correction for charged system         0.000000 eV
 dipol+quadrupol energy correction            0.366723 eV
 added-field ion interaction          0.000000 eV  (added to PSCEN)


 Broyden mixing:
  rms(total) = 0.83447E-01    rms(broyden)= 0.83414E-01
  rms(prec ) = 0.10632E+00
  weight for this iteration     100.00

 eigenvalues of (default mixing * dielectric matrix)
  average eigenvalue GAMMA=   1.0558
  2.8960  2.0207  2.0207  2.1788  2.1788  1.0418  1.0418  0.7737  0.7737  0.2520
  0.2520  0.5815  0.5815  0.4005  0.4005  0.1345  0.4207

 Free energy of the ion-electron system (eV)
  ---------------------------------------------------
  alpha Z        PSCENC =        -0.27320415
  Ewald energy   TEWEN  =      3205.49694447
  -Hartree energ DENC   =     -6495.57785122
  -exchange      EXHF   =         0.00000000
  -V(xc)+E(xc)   XCENC  =      -237.81423608
  PAW double counting   =      4145.28353468    -3704.34453734
  entropy T*S    EENTRO =        -0.08688245
  eigenvalues    EBANDS =      -410.43286351
  atomic energy  EATOM  =      3429.81723989
  Solvation  Ediel_sol  =         0.00000000
  ---------------------------------------------------
  free energy    TOTEN  =       -67.93185570 eV

  energy without entropy =      -67.84497325  energy(sigma->0) =      -67.88841447


--------------------------------------------------------------------------------------------------------




--------------------------------------- Iteration      1(  23)  ---------------------------------------


    POTLOK:  cpu time    0.0117: real time    0.0117
    SETDIJ:  cpu time    0.0410: real time    0.0410
    EDDIAG:  cpu time    0.0366: real time    0.0368
  RMM-DIIS:  cpu time    0.0500: real time    0.0500
    ORTHCH:  cpu time    0.0049: real time    0.0049
       DOS:  cpu time    0.0004: real time    0.0004
    CHARGE:  cpu time    0.0126: real time    0.0126
    MIXING:  cpu time    0.0011: real time    0.0011
    --------------------------------------------
      LOOP:  cpu time    0.1583: real time    0.1586

 eigenvalue-minimisations  :   605
 total energy-change (2. order) : 0.5019757E-02  (-0.3398619E-03)
 number of electron      63.9999895 magnetization 
 augmentation part       -1.1886219 magnetization 

 DIPCOR: dipole corrections for dipol
 direction  3 min pos     3,
 dipolmoment           1.149517     -1.149517      1.625663 electrons x Angstroem
 Tr[quadrupol]      -422.946956

 energy correction for charged system         0.000000 eV
 dipol+quadrupol energy correction            0.369489 eV
 added-field ion interaction          0.000000 eV  (added to PSCEN)


 Broyden mixing:
  rms(total) = 0.16030E-01    rms(broyden)= 0.15284E-01
  rms(prec ) = 0.17660E-01
  weight for this iteration     100.00

 eigenvalues of (default mixing * dielectric matrix)
  average eigenvalue GAMMA=   1.1080
  2.6268  2.6268  2.5907  2.5907  1.4349  1.4349  0.9583  0.9583  0.7676  0.7676
  0.2520  0.2520  0.6847  0.6118  0.4005  0.4005  0.4522  0.1345

 Free energy of the ion-electron system (eV)
  ---------------------------------------------------
  alpha Z        PSCENC =        -0.27043818
  Ewald energy   TEWEN  =      3205.49694447
  -Hartree energ DENC   =     -6494.87323614
  -exchange      EXHF   =         0.00000000
  -V(xc)+E(xc)   XCENC  =      -237.82755754
  PAW double counting   =      4142.02918321    -3701.08398256
  entropy T*S    EENTRO =        -0.08124831
  eigenvalues    EBANDS =      -411.13374079
  atomic energy  EATOM  =      3429.81723989
  Solvation  Ediel_sol  =         0.00000000
  ---------------------------------------------------
  free energy    TOTEN  =       -67.92683594 eV

  energy without entropy =      -67.84558764  energy(sigma->0) =      -67.88621179


--------------------------------------------------------------------------------------------------------




--------------------------------------- Iteration      1(  24)  ---------------------------------------


    POTLOK:  cpu time    0.0119: real time    0.0119
    SETDIJ:  cpu time    0.0411: real time    0.0412
    EDDIAG:  cpu time    0.0358: real time    0.0366
  RMM-DIIS:  cpu time    0.0449: real time    0.0450
    ORTHCH:  cpu time    0.0045: real time    0.0045
       DOS:  cpu time    0.0004: real time    0.0004
    CHARGE:  cpu time    0.0134: real time    0.0134
    MIXING:  cpu time    0.0012: real time    0.0012
    --------------------------------------------
      LOOP:  cpu time    0.1533: real time    0.1543

 eigenvalue-minimisations  :   555
[...]
  entropy T*S    EENTRO =        -0.07967520
  eigenvalues    EBANDS =      -409.97761218
  atomic energy  EATOM  =      3429.81723989
  Solvation  Ediel_sol  =         0.00000000
  ---------------------------------------------------
  free energy    TOTEN  =       -67.91986896 eV

  energy without entropy =      -67.84019376  energy(sigma->0) =      -67.88003136


--------------------------------------------------------------------------------------------------------




--------------------------------------- Iteration      1(  56)  ---------------------------------------


    POTLOK:  cpu time    0.0125: real time    0.0125
    SETDIJ:  cpu time    0.0402: real time    0.0402
    EDDIAG:  cpu time    0.0361: real time    0.0361
  RMM-DIIS:  cpu time    0.0226: real time    0.0226
    ORTHCH:  cpu time    0.0051: real time    0.0051
       DOS:  cpu time    0.0004: real time    0.0004
    --------------------------------------------
      LOOP:  cpu time    0.1169: real time    0.1170

 eigenvalue-minimisations  :   146
 total energy-change (2. order) : 0.9852101E-08  ( 0.0000000E+00)
 number of electron      63.9999896 magnetization 
 augmentation part       -1.1841851 magnetization 

 DIPCOR: dipole corrections for dipol
 direction  3 min pos     3,
 dipolmoment           1.163897     -1.163897      1.645999 electrons x Angstroem
 Tr[quadrupol]      -423.973285

 energy correction for charged system         0.000000 eV
 dipol+quadrupol energy correction            0.378791 eV
 added-field ion interaction          0.000000 eV  (added to PSCEN)


 Free energy of the ion-electron system (eV)
  ---------------------------------------------------
  alpha Z        PSCENC =        -0.26113622
  Ewald energy   TEWEN  =      3205.49694447
  -Hartree energ DENC   =     -6496.02741117
  -exchange      EXHF   =         0.00000000
  -V(xc)+E(xc)   XCENC  =      -237.83804013
  PAW double counting   =      4140.83979657    -3699.88997584
  entropy T*S    EENTRO =        -0.07967522
  eigenvalues    EBANDS =      -409.97761129
  atomic energy  EATOM  =      3429.81723989
  Solvation  Ediel_sol  =         0.00000000
  ---------------------------------------------------
  free energy    TOTEN  =       -67.91986895 eV

  energy without entropy =      -67.84019373  energy(sigma->0) =      -67.88003134


--------------------------------------------------------------------------------------------------------




 average (electrostatic) potential at core
  the test charge radii are     1.1212  0.7215  0.9406
  (the norm of the test charge is              1.0000)
       1 -45.7377       2 -44.5426       3 -45.7373       4 -44.0923       5 -43.6038
       6 -44.0921       7 -43.1758       8 -42.5925       9 -43.1757      10 -42.3165
      11 -41.9673      12 -42.3172      13 -75.0006      14 -73.8512      15 -72.9687
      16 -73.5651      17 -98.0043      18 -97.1622      19 -96.3330      20 -94.2838
 
 
 
 E-fermi :  -0.8689     XC(G=0):  -5.2187     alpha+bet : -5.0273

 Fermi energy:        -0.8689446087

 k-point     1 :       0.0000    0.0000    0.0000
  band No.  band energies     occupation 
      1     -17.5656      2.00000
      2     -17.3926      2.00000
      3     -16.6604      2.00000
      4     -16.3522      2.00000
      5     -15.8291      2.00000
      6     -15.5101      2.00000
      7     -15.4522      2.00000
      8     -13.6233      2.00000
      9      -6.1058      2.00000
     10      -6.0177      2.00000
     11      -5.7055      2.00000
     12      -5.2236      2.00000
     13      -5.2210      2.00000
     14      -4.8320      2.00000
     15      -4.3816      2.00000
     16      -4.3525      2.00000
     17      -4.0105      2.00000
     18      -3.4936      2.00000
     19      -3.1931      2.00000
     20      -3.0939      2.00000
     21      -2.3440      2.00000
     22      -2.3059      2.00000
     23      -2.1835      2.00000
     24      -2.1089      2.00000
     25      -1.9992      2.00000
     26      -1.7239      2.00000
     27      -1.6458      2.00000
     28      -1.2208      2.00000
     29      -1.2154      2.00000
     30      -1.0764      1.99665
     31      -0.9785      1.87878
     32      -0.9008      1.34796
     33      -0.8065      0.37755
     34       0.6323      0.00000
     35       1.2840      0.00000
     36       1.6413      0.00000
     37       1.8631      0.00000
     38       2.7007      0.00000
     39       2.8927      0.00000
     40       3.3347      0.00000
     41       3.6847      0.00000
     42       3.8787      0.00000
     43       4.1110      0.00000
     44       4.4724      0.00000
     45       4.6525      0.00000
     46       4.9807      0.00000
     47       6.2268      0.00000
     48       6.4793      0.00000

 k-point     2 :       0.3333    0.0000    0.0000
  band No.  band energies     occupation 
      1     -17.4902      2.00000
      2     -17.4014      2.00000
      3     -16.6158      2.00000
      4     -16.3333      2.00000
      5     -15.7855      2.00000
      6     -15.4859      2.00000
      7     -15.4257      2.00000
      8     -13.6024      2.00000
      9      -6.2089      2.00000
     10      -5.9613      2.00000
     11      -5.9035      2.00000
     12      -5.3114      2.00000
     13      -5.1621      2.00000
     14      -5.1000      2.00000
     15      -4.4886      2.00000
     16      -4.3226      2.00000
     17      -4.2350      2.00000
     18      -3.5667      2.00000
     19      -3.4104      2.00000
     20      -3.3672      2.00000
     21      -2.4170      2.00000
     22      -2.2711      2.00000
     23      -2.2534      2.00000
     24      -2.1736      2.00000
     25      -2.1672      2.00000
     26      -2.1008      2.00000
     27      -1.3908      2.00000
     28      -1.3893      2.00000
     29      -1.2899      2.00000
     30      -1.2223      2.00000
     31      -0.9770      1.87338
     32      -0.9498      1.74733
     33      -0.8354      0.63556
     34       1.1712      0.00000
     35       1.9544      0.00000
     36       2.4470      0.00000
     37       2.5895      0.00000
     38       2.6918      0.00000
     39       3.5279      0.00000
     40       3.8811      0.00000
     41       4.0610      0.00000
     42       4.0640      0.00000
     43       4.5648      0.00000
     44       5.0028      0.00000
     45       5.0333      0.00000
     46       5.6760      0.00000
     47       5.7811      0.00000
     48       6.2485      0.00000

 k-point     3 :       0.0000    0.3333    0.0000
  band No.  band energies     occupation 
      1     -17.5243      2.00000
      2     -17.4338      2.00000
      3     -16.6421      2.00000
      4     -16.3710      2.00000
      5     -15.8143      2.00000
      6     -15.5067      2.00000
      7     -15.4700      2.00000
      8     -13.6250      2.00000
      9      -6.0838      2.00000
     10      -6.0028      2.00000
     11      -5.6950      2.00000
     12      -5.2176      2.00000
     13      -5.1990      2.00000
     14      -4.8243      2.00000
     15      -4.3710      2.00000
     16      -4.3264      2.00000
     17      -4.0037      2.00000
     18      -3.5124      2.00000
     19      -3.4299      2.00000
     20      -3.1242      2.00000
     21      -2.3450      2.00000
     22      -2.3173      2.00000
     23      -2.2113      2.00000
     24      -2.1555      2.00000
     25      -2.0289      2.00000
     26      -1.6940      2.00000
     27      -1.4397      2.00000
     28      -1.2504      2.00000
     29      -1.1896      1.99999
     30      -1.0928      1.99845
     31      -0.9894      1.91156
     32      -0.9588      1.79630
     33      -0.9583      1.79345
     34      -0.1203      0.00000
     35       1.2967      0.00000
     36       2.1268      0.00000
     37       2.5582      0.00000
     38       3.0220      0.00000
     39       3.3960      0.00000
     40       3.5808      0.00000
     41       3.7211      0.00000
     42       4.0960      0.00000
     43       4.3565      0.00000
     44       4.5655      0.00000
     45       4.7948      0.00000
     46       5.1373      0.00000
     47       5.8733      0.00000
     48       6.9242      0.00000

 k-point     4 :       0.3333    0.3333    0.0000
  band No.  band energies     occupation 
      1     -17.4693      2.00000
      2     -17.4205      2.00000
      3     -16.6099      2.00000
      4     -16.3381      2.00000
      5     -15.7807      2.00000
      6     -15.4795      2.00000
      7     -15.4363      2.00000
      8     -13.6017      2.00000
      9      -6.2495      2.00000
     10      -6.0472      2.00000
     11      -5.9111      2.00000
     12      -5.3523      2.00000
     13      -5.1522      2.00000
     14      -5.1395      2.00000
     15      -4.5286      2.00000
     16      -4.2967      2.00000
     17      -4.2809      2.00000
     18      -3.4750      2.00000
     19      -3.3921      2.00000
     20      -3.2818      2.00000
     21      -2.3548      2.00000
     22      -2.2990      2.00000
     23      -2.2318      2.00000
     24      -2.2179      2.00000
     25      -2.1758      2.00000
     26      -2.0740      2.00000
     27      -1.3709      2.00000
     28      -1.2956      2.00000
     29      -1.2074      2.00000
     30      -1.1477      1.99992
     31      -0.9649      1.82509
     32      -0.9057      1.39674
     33      -0.4866      0.00000
     34       0.5561      0.00000
     35       1.7458      0.00000
     36       2.2612      0.00000
     37       2.6176      0.00000
     38       3.1501      0.00000
     39       3.4133      0.00000
     40       3.7540      0.00000
     41       3.8559      0.00000
     42       4.4050      0.00000
     43       4.5883      0.00000
     44       5.0682      0.00000
     45       5.1873      0.00000
     46       5.5366      0.00000
     47       5.8043      0.00000
     48       6.1266      0.00000


--------------------------------------------------------------------------------------------------------


 soft charge-density along one line, spin component           1
         0         1         2         3         4         5         6         7         8         9
 total charge-density along one line
 
 pseudopotential strength for first ion, spin component:           1
  1.422   6.450  -0.001   0.001   0.001
  6.450  28.723   0.004  -0.009  -0.004
 -0.001   0.004   4.826  -0.000  -0.001
  0.001  -0.009  -0.000   4.826   0.000
  0.001  -0.004  -0.001   0.000   4.826
 total augmentation occupancy for first ion, spin component:           1
  0.709   0.004  -0.033   0.034   0.033
  0.004   0.000  -0.000   0.000   0.000
 -0.033  -0.000   0.017  -0.009  -0.007
  0.034   0.000  -0.009   0.022   0.009
  0.033   0.000  -0.007   0.009   0.017


------------------------ aborting loop because EDIFF is reached ----------------------------------------


    CHARGE:  cpu time    0.0132: real time    0.0132
    FORLOC:  cpu time    0.0014: real time    0.0014
    FORNL :  cpu time    0.0221: real time    0.0234
    STRESS:  cpu time    0.0510: real time    0.0526
    FORCOR:  cpu time    0.0126: real time    0.0129
    FORHAR:  cpu time    0.0039: real time    0.0041
    MIXING:  cpu time    0.0024: real time    0.0024
    OFIELD:  cpu time    0.0005: real time    0.0012

  FORCE on cell =-STRESS in cart. coord.  units (eV):
  Direction    XX          YY          ZZ          XY          YZ          ZX
  --------------------------------------------------------------------------------------
  Alpha Z    -0.63993    -0.63993    -0.63993
  Ewald    4688.10924  4688.10924 -6170.72427    -2.12289     0.00001    -0.00002
  Hartree  5676.74220  5676.74220 -4857.45698    -6.16192    -0.00584     0.00584
  E(xc)    -254.19253  -254.19253  -254.00660    -0.04658    -0.00202     0.00202
  Local  -11344.26620-11344.26620 10045.21422     4.80526     0.01281    -0.01281
  n-local   266.66970   265.87866   264.74637    -0.39255     0.01596    -0.01439
  augment   -50.63153   -50.63153   -50.60088     0.30772    -0.00287     0.00290
  Kinetic  1018.24287  1017.90751  1021.33709     3.01299    -0.02952     0.03407
  Fock        0.00000     0.00000     0.00000     0.00000     0.00000     0.00000
  -------------------------------------------------------------------------------------
  Total      -0.52939    -0.52939    -2.13098    -0.59635    -0.01454     0.01454
  in kB      -1.31066    -1.31066    -5.27587    -1.47643    -0.03600     0.03600
  external pressure =       -2.63 kB  Pullay stress =        0.00 kB


 VOLUME and BASIS-vectors are now :
 -----------------------------------------------------------------------------
  energy-cutoff  :      400.00
  volume of cell :      647.14
      direct lattice vectors                 reciprocal lattice vectors
    -3.151842525 -3.151842525  0.000000000    -0.158637367 -0.158637367  0.000000000
     4.457378445 -4.457378445  0.000000000     0.112173558 -0.112173558 -0.158637367
    16.285693819-16.285693819 23.031449071     0.000000000  0.000000000  0.043418892

  length of vectors
     4.457378445  6.303685050 32.571387638     0.224347116  0.224347116  0.043418892


 FORCES acting on ions
    electron-ion (+dipol)            ewald-force                    non-local-force                 convergence-correction
 -----------------------------------------------------------------------------------------------
   0.485E+01 -.485E+01 0.880E+02   -.364E+01 0.364E+01 -.863E+02   -.119E+01 0.119E+01 -.174E+01   0.222E-09 -.222E-09 -.192E-07
   0.884E-04 -.113E-03 0.682E+02   -.104E-04 -.644E-05 -.680E+02   0.539E-03 -.539E-03 0.177E+00   -.690E-10 0.690E-10 -.762E-07
   -.485E+01 0.485E+01 0.880E+02   0.364E+01 -.364E+01 -.863E+02   0.120E+01 -.120E+01 -.174E+01   -.231E-09 0.231E-09 -.193E-07
   0.172E+00 -.172E+00 0.442E+02   0.179E-01 -.179E-01 -.437E+02   -.185E+00 0.185E+00 -.171E+00   -.153E-08 0.153E-08 -.103E-06
   -.976E-04 0.736E-04 0.206E+02   0.449E-05 -.215E-04 -.204E+02   -.340E-03 0.340E-03 0.734E-01   0.649E-10 -.649E-10 -.107E-06
   -.172E+00 0.172E+00 0.442E+02   -.179E-01 0.179E-01 -.437E+02   0.186E+00 -.186E+00 -.176E+00   0.153E-08 -.153E-08 -.103E-06
   0.143E+00 -.143E+00 -.251E+01   0.108E-04 -.564E-05 0.292E+01   -.159E+00 0.159E+00 -.143E+00   0.176E-08 -.176E-08 -.104E-06
   0.357E-04 -.595E-04 -.258E+02   -.105E-04 -.646E-05 0.262E+02   0.131E-02 -.131E-02 0.420E-01   -.679E-10 0.679E-10 -.962E-07
   -.142E+00 0.142E+00 -.251E+01   -.371E-05 0.891E-05 0.292E+01   0.158E+00 -.158E+00 -.144E+00   -.176E-08 0.176E-08 -.104E-06
   -.342E+00 0.342E+00 -.494E+02   -.179E-01 0.179E-01 0.497E+02   0.205E-01 -.205E-01 0.249E+00   -.149E-07 0.149E-07 -.798E-07
   -.135E-04 -.940E-05 -.722E+02   -.792E-05 -.829E-05 0.725E+02   -.183E-02 0.183E-02 0.529E+00   0.769E-10 -.769E-10 -.602E-09
   0.342E+00 -.342E+00 -.494E+02   0.179E-01 -.179E-01 0.497E+02   -.279E-01 0.279E-01 0.255E+00   0.148E-07 -.148E-07 -.798E-07
   0.496E-03 0.941E-03 0.400E+03   0.783E-05 0.178E-04 -.398E+03   0.266E-02 -.266E-02 -.178E+01   -.142E-08 0.142E-08 -.584E-06
   -.536E-04 0.148E-02 0.124E+03   0.636E-04 -.345E-04 -.122E+03   0.947E-03 -.947E-03 -.179E+01   0.180E-08 -.180E-08 -.684E-06
   0.560E-03 0.867E-03 -.155E+03   0.101E-04 0.189E-04 0.157E+03   -.197E-02 0.197E-02 -.292E+01   -.148E-08 0.148E-08 -.607E-06
   0.377E-02 -.235E-02 -.428E+03   0.186E-04 0.697E-05 0.436E+03   -.527E-02 0.527E-02 -.845E+01   0.428E-08 -.428E-08 -.764E-07
   0.379E-03 0.272E-03 0.467E+03   0.343E-05 -.225E-04 -.467E+03   -.333E-03 0.333E-03 0.104E+00   0.132E-08 -.132E-08 -.666E-06
   0.403E-03 0.244E-03 0.143E+03   -.721E-04 0.496E-04 -.143E+03   0.778E-04 -.778E-04 -.869E+00   -.108E-09 0.108E-09 -.827E-06
   0.246E-03 0.402E-03 -.183E+03   0.221E-05 -.246E-04 0.184E+03   -.273E-03 0.273E-03 -.733E+00   0.855E-09 -.855E-09 -.793E-06
   0.207E-03 0.445E-03 -.496E+03   -.657E-05 -.803E-05 0.498E+03   0.451E-03 -.451E-03 -.257E+01   -.217E-08 0.217E-08 0.113E-07
 -----------------------------------------------------------------------------------------------
   0.626E-02 0.194E-02 0.218E+02   0.215E-13 0.219E-14 0.000E+00   -.335E-02 0.335E-02 -.218E+02   0.306E-08 -.307E-08 -.512E-05
 
 
 POSITION                                       TOTAL-FORCE (eV/Angst)
 -----------------------------------------------------------------------------------
      4.89541     -8.04725      6.00000         0.018288     -0.018288      0.032333
      7.58567     -7.58567      7.57592         0.000697     -0.000697      0.362460
      7.12410    -10.27594      6.00000        -0.011379      0.011379      0.028887
      7.12410    -10.27594      9.15184         0.005669     -0.005669      0.298809
      9.81436     -9.81436     10.72776        -0.000353      0.000353      0.279260
      4.89541     -8.04725      9.15184        -0.004066      0.004066      0.293722
      9.35279    -12.50463     12.30369        -0.016010      0.016010      0.261243
     12.04305    -12.04305     13.87961         0.001413     -0.001413      0.494419
     11.58148    -14.73332     12.30369         0.015944     -0.015944      0.260452
     11.58147    -14.73332     15.45553        -0.339005      0.339005      0.574874
     14.27174    -14.27174     17.03145        -0.001768      0.001768      0.828478
      9.35279    -12.50463     15.45553         0.331939     -0.331939      0.579821
      6.00975     -9.16160      7.57592         0.002494     -0.002494     -0.666438
      8.23844    -11.39028     10.72776         0.000288     -0.000288     -0.462911
     10.46713    -13.61897     13.87961        -0.002070      0.002070     -0.692018
     12.69582    -15.84766     17.03145        -0.002143      0.002143     -0.727065
      9.81436     -9.81436      7.57592        -0.000207      0.000207     -0.267691
      7.58567     -7.58568     10.72776         0.000156     -0.000156     -0.359922
     14.27174    -14.27174     13.87961        -0.000278      0.000278     -0.286385
     16.50043    -16.50043     17.03145         0.000392     -0.000392     -0.832326
 -----------------------------------------------------------------------------------
    total drift:                                0.002910      0.005295     -0.006755


--------------------------------------------------------------------------------------------------------



  FREE ENERGIE OF THE ION-ELECTRON SYSTEM (eV)
  ---------------------------------------------------
  free  energy   TOTEN  =       -67.91986895 eV

  energy  without entropy=      -67.84019373  energy(sigma->0) =      -67.88003134
 


--------------------------------------------------------------------------------------------------------


    POTLOK:  cpu time    0.0547: real time    0.0548


--------------------------------------------------------------------------------------------------------


     LOOP+:  cpu time    9.1391: real time    9.5527
    4ORBIT:  cpu time    0.0000: real time    0.0000

 total amount of memory used by VASP MPI-rank0    33838. kBytes
=======================================================================

   base      :      30000. kBytes
   nonlr-proj:        872. kBytes
   fftplans  :        939. kBytes
   grid      :       1727. kBytes
   one-center:          6. kBytes
   wavefun   :        294. kBytes
 
  
  
 General timing and accounting informations for this job:
 ========================================================
  
                  Total CPU time used (sec):        9.740
                            User time (sec):        9.266
                          System time (sec):        0.473
                         Elapsed time (sec):       10.347
  
                   Maximum memory used (kb):      102428.
                   Average memory used (kb):          N/A
  
                          Minor page faults:        53647
                          Major page faults:            0
                 Voluntary context switches:         1157
