<?xml version="1.0" encoding="ISO-8859-1"?>
<modeling>
 <generator>
  <i name="program" type="string">vasp </i>
  <i name="version" type="string">6.2.1  </i>
  <i name="subversion" type="string">16May21 (build Dec 23 2021 00:35:04) complex                          parallel </i>
  <i name="platform" type="string">LinuxIFC </i>
  <i name="date" type="string">2023 03 08 </i>
  <i name="time" type="string">11:51:45 </i>
 </generator>
 <incar>
  <i type="string" name="PREC">Normal</i>
  <i type="string" name="ALGO">Fast</i>
  <i type="int" name="ISPIN">     0</i>
  <i type="int" name="NELM">   150</i>
  <i type="int" name="IBRION">    -1</i>
  <i name="EDIFF">      0.00000001</i>
  <i name="EDIFFG">     -0.01000000</i>
  <i type="int" name="NSW">     0</i>
  <i type="int" name="ISIF">     3</i>
  <i name="ENCUT">    400.00000000</i>
  <i type="string" name="LREAL">AUTO</i>
  <i type="int" name="ISMEAR">     0</i>
  <i name="SIGMA">      0.10000000</i>
  <i name="KSPACING">      0.50000000</i>
  <i type="logical" name="KGAMMA"> T  </i>
  <i type="int" name="NWRITE">     1</i>
  <i type="int" name="LMAXMIX">     6</i>
  <i type="logical" name="LWAVE"> F  </i>
  <i type="logical" name="LCHARG"> F  </i>
  <i type="logical" name="LASPH"> T  </i>
  <i type="string" name="GGA">PE</i>
  <i type="logical" name="LDIPOL"> T  </i>
  <i type="int" name="IDIPOL">     3</i>
  <v name="DIPOL">      0.25730000      0.57360000      0.50810000</v>
 </incar>
 <primitive_cell>
  <structure name="primitive_cell" >
   <crystal>
    <varray name="basis" >
     <v>      -3.15184252      -3.15184252       0.00000000 </v>
     <v>       4.45737844      -4.45737844       0.00000000 </v>
     <v>      16.28569382     -16.28569382      23.03144907 </v>
    </varray>
    <i name="volume">    647.13558004 </i>
    <varray name="rec_basis" >
     <v>      -0.15863737      -0.15863737       0.00000000 </v>
     <v>       0.11217356      -0.11217356      -0.15863737 </v>
     <v>       0.00000000       0.00000000       0.04341889 </v>
    </varray>
   </crystal>
   <varray name="positions" >
    <v>       0.50000017       0.49999983       0.26051335 </v>
    <v>       0.00000010       0.49999983       0.32893812 </v>
    <v>       0.50000017       0.99999990       0.26051335 </v>
    <v>       0.50000017       0.49999983       0.39736286 </v>
    <v>       0.00000010       0.49999983       0.46578763 </v>
    <v>       0.50000017       0.00000010       0.39736286 </v>
    <v>       0.50000017       0.49999983       0.53421237 </v>
    <v>       0.00000010       0.49999983       0.60263714 </v>
    <v>       0.50000017       0.99999990       0.53421237 </v>
    <v>       0.50000017       0.49999983       0.67106188 </v>
    <v>       0.00000010       0.49999983       0.73948665 </v>
    <v>       0.50000017       0.00000010       0.67106188 </v>
    <v>       0.50000017       0.49999983       0.32893812 </v>
    <v>       0.50000017       0.49999983       0.46578763 </v>
    <v>       0.50000017       0.49999983       0.60263714 </v>
    <v>       0.50000017       0.49999983       0.73948665 </v>
    <v>       0.00000010       0.99999990       0.32893810 </v>
    <v>       0.00000010       0.00000010       0.46578761 </v>
    <v>       0.00000010       0.99999990       0.60263712 </v>
    <v>       0.00000010       0.99999990       0.73948663 </v>
   </varray>
  </structure>
  <varray name="primitive_index" >
   <v type="int" >        1 </v>
   <v type="int" >        2 </v>
   <v type="int" >        3 </v>
   <v type="int" >        4 </v>
   <v type="int" >        5 </v>
   <v type="int" >        6 </v>
   <v type="int" >        7 </v>
   <v type="int" >        8 </v>
   <v type="int" >        9 </v>
   <v type="int" >       10 </v>
   <v type="int" >       11 </v>
   <v type="int" >       12 </v>
   <v type="int" >       13 </v>
   <v type="int" >       14 </v>
   <v type="int" >       15 </v>
   <v type="int" >       16 </v>
   <v type="int" >       17 </v>
   <v type="int" >       18 </v>
   <v type="int" >       19 </v>
   <v type="int" >       20 </v>
  </varray>
 </primitive_cell>
 <kpoints>
  <generation param="Gamma">
   <v type="int" name="divisions">       3        3        1 </v>
   <v name="usershift">      0.00000000       0.00000000       0.00000000 </v>
   <v name="genvec1">      0.33333333       0.00000000       0.00000000 </v>
   <v name="genvec2">      0.00000000       0.33333333      -0.00000000 </v>
   <v name="genvec3">      0.00000000       0.00000000       1.00000000 </v>
   <v name="shift">      0.00000000       0.00000000       0.00000000 </v>
  </generation>
  <varray name="kpointlist" >
   <v>       0.00000000       0.00000000       0.00000000 </v>
   <v>       0.33333333       0.00000000       0.00000000 </v>
   <v>       0.00000000       0.33333333       0.00000000 </v>
   <v>       0.33333333       0.33333333       0.00000000 </v>
  </varray>
  <varray name="weights" >
   <v>       0.11111111 </v>
   <v>       0.22222222 </v>
   <v>       0.22222222 </v>
   <v>       0.44444444 </v>
  </varray>
 </kpoints>
 <parameters>
  <separator name="general" >
   <i type="string" name="SYSTEM">unknown system</i>
   <i type="logical" name="LCOMPAT"> F  </i>
  </separator>
  <separator name="electronic" >
   <i type="string" name="PREC">normal</i>
   <i name="ENMAX">    400.00000000</i>
   <i name="ENAUG">    605.39200000</i>
   <i name="EDIFF">      0.00000001</i>
   <i type="int" name="IALGO">    68</i>
   <i type="int" name="IWAVPR">    10</i>
   <i type="int" name="NBANDS">    48</i>
   <i type="int" name="NBANDSLOW">    -1</i>
   <i type="int" name="NBANDSHIGH">    -1</i>
   <i name="NELECT">     64.00000000</i>
   <i type="int" name="TURBO">     0</i>
   <i type="int" name="IRESTART">     0</i>
   <i type="int" name="NREBOOT">     0</i>
   <i type="int" name="NMIN">     0</i>
   <i name="EREF">      0.00000000</i>
   <separator name="electronic smearing" >
    <i type="int" name="ISMEAR">     0</i>
    <i name="SIGMA">      0.10000000</i>
    <i name="KSPACING">      0.50000000</i>
    <i type="logical" name="KGAMMA"> T  </i>
    <i type="logical" name="KBLOWUP"> T  </i>
   </separator>
   <separator name="electronic projectors" >
    <i type="logical" name="LREAL"> T  </i>
    <v name="ROPT">     -0.00050000     -0.00050000     -0.00050000</v>
    <i type="int" name="LMAXPAW">  -100</i>
    <i type="int" name="LMAXMIX">     6</i>
    <i type="logical" name="NLSPLINE"> F  </i>
   </separator>
   <separator name="electronic startup" >
    <i type="int" name="ISTART">     0</i>
    <i type="int" name="ICHARG">     2</i>
    <i type="int" name="INIWAV">     1</i>
   </separator>
   <separator name="electronic spin" >
    <i type="int" name="ISPIN">     1</i>
    <i type="logical" name="LNONCOLLINEAR"> F  </i>
    <v name="MAGMOM">      1.00000000      1.00000000      1.00000000      1.00000000      1.00000000      1.00000000      1.00000000      1.00000000      1.00000000      1.00000000      1.00000000      1.00000000      1.00000000      1.00000000      1.00000000      1.00000000      1.00000000      1.00000000      1.00000000      1.00000000
</v>
    <i name="NUPDOWN">     -1.00000000</i>
    <i type="logical" name="LSORBIT"> F  </i>
    <v name="SAXIS">      0.00000000      0.00000000      1.00000000</v>
    <i type="logical" name="LSPIRAL"> F  </i>
    <v name="QSPIRAL">      0.00000000      0.00000000      0.00000000</v>
    <i type="logical" name="LZEROZ"> F  </i>
   </separator>
   <separator name="electronic exchange-correlation" >
    <i type="logical" name="LASPH"> T  </i>
    <i type="logical" name="LMETAGGA"> F  </i>
   </separator>
   <separator name="electronic convergence" >
    <i type="int" name="NELM">   150</i>
    <i type="int" name="NELMDL">    -5</i>
    <i type="int" name="NELMIN">     2</i>
    <i name="ENINI">    400.00000000</i>
    <separator name="electronic convergence detail" >
     <i type="logical" name="LDIAG"> T  </i>
     <i type="logical" name="LSUBROT"> F  </i>
     <i name="WEIMIN">      0.00000000</i>
     <i name="EBREAK">      0.00000000</i>
     <i name="DEPER">      0.30000000</i>
     <i type="int" name="NRMM">     4</i>
     <i name="TIME">      0.40000000</i>
    </separator>
   </separator>
   <separator name="electronic mixer" >
    <i name="AMIX">      0.40000000</i>
    <i name="BMIX">      1.00000000</i>
    <i name="AMIN">      0.10000000</i>
    <i name="AMIX_MAG">      1.60000000</i>
    <i name="BMIX_MAG">      1.00000000</i>
    <separator name="electronic mixer details" >
     <i type="int" name="IMIX">     4</i>
     <i type="logical" name="MIXFIRST"> F  </i>
     <i type="int" name="MAXMIX">   -45</i>
     <i name="WC">    100.00000000</i>
     <i type="int" name="INIMIX">     1</i>
     <i type="int" name="MIXPRE">     1</i>
     <i type="int" name="MREMOVE">     5</i>
    </separator>
   </separator>
   <separator name="electronic dipolcorrection" >
    <i type="logical" name="LDIPOL"> T  </i>
    <i type="logical" name="LMONO"> F  </i>
    <i type="int" name="IDIPOL">     3</i>
    <i name="EPSILON">      1.00000000</i>
    <v name="DIPOL">      0.25730000      0.57360000      0.50810000</v>
    <i name="EFIELD">      0.00000000</i>
   </separator>
  </separator>
  <separator name="grids" >
   <i type="int" name="NGX">    24</i>
   <i type="int" name="NGY">    32</i>
   <i type="int" name="NGZ">   160</i>
   <i type="int" name="NGXF">    48</i>
   <i type="int" name="NGYF">    64</i>
   <i type="int" name="NGZF">   320</i>
   <i type="logical" name="ADDGRID"> F  </i>
  </separator>
  <separator name="ionic" >
   <i type="int" name="NSW">     0</i>
   <i type="int" name="IBRION">    -1</i>
   <i type="int" name="MDALGO">     0</i>
   <i type="int" name="ISIF">     3</i>
   <i name="PSTRESS">      0.00000000</i>
   <i name="EDIFFG">     -0.01000000</i>
   <i type="int" name="NFREE">     0</i>
   <i name="POTIM">      0.50000000</i>
   <i name="SMASS">     -3.00000000</i>
   <i name="SCALEE">      1.00000000</i>
  </separator>
  <separator name="ionic md" >
   <i name="TEBEG">      0.00010000</i>
   <i name="TEEND">      0.00010000</i>
   <i type="int" name="NBLOCK">     1</i>
   <i type="int" name="KBLOCK">     1</i>
   <i type="int" name="NPACO">   256</i>
   <i name="APACO">     16.00000000</i>
  </separator>
  <separator name="symmetry" >
   <i type="int" name="ISYM">     2</i>
   <i name="SYMPREC">      0.00001000</i>
  </separator>
  <separator name="dos" >
   <i type="int" name="LORBIT">     0</i>
   <v name="RWIGS">     -1.00000000     -1.00000000     -1.00000000</v>
   <i type="int" name="NEDOS">   301</i>
   <i name="EMIN">     10.00000000</i>
   <i name="EMAX">    -10.00000000</i>
   <i name="EFERMI">      0.00000000</i>
  </separator>
  <separator name="writing" >
   <i type="int" name="NWRITE">     1</i>
   <i type="logical" name="LWAVE"> F  </i>
   <i type="logical" name="LDOWNSAMPLE"> F  </i>
   <i type="logical" name="LCHARG"> F  </i>
   <i type="logical" name="LPARD"> F  </i>
   <i type="logical" name="LVTOT"> F  </i>
   <i type="logical" name="LVHAR"> F  </i>
   <i type="logical" name="LELF"> F  </i>
   <i type="logical" name="LOPTICS"> F  </i>
   <v name="STM">      0.00000000      0.00000000      0.00000000      0.00000000      0.00000000      0.00000000      0.00000000</v>
  </separator>
  <separator name="performance" >
   <i type="int" name="NPAR">     8</i>
   <i type="int" name="NSIM">     4</i>
   <i type="int" name="NBLK">    -1</i>
   <i type="logical" name="LPLANE"> T  </i>
   <i type="logical" name="LSCALAPACK"> T  </i>
   <i type="logical" name="LSCAAWARE"> F  </i>
   <i type="logical" name="LSCALU"> F  </i>
   <i type="logical" name="LASYNC"> F  </i>
   <i type="logical" name="LORBITALREAL"> F  </i>
  </separator>
  <separator name="miscellaneous" >
   <i type="int" name="IDIOT">     3</i>
   <i type="int" name="PHON_NSTRUCT">    -1</i>
   <i type="logical" name="LMUSIC"> F  </i>
   <v name="POMASS">     22.99000000     16.00000000     35.45300000</v>
   <v name="DARWINR">      0.00000000      0.00000000      0.00000000</v>
   <v name="DARWINV">      1.00000000      1.00000000      1.00000000</v>
   <i type="logical" name="LCORR"> T  </i>
  </separator>
  <i type="logical" name="GGA_COMPAT"> T  </i>
  <i type="logical" name="LBERRY"> F  </i>
  <i type="int" name="ICORELEVEL">     0</i>
  <i type="logical" name="LDAU"> F  </i>
  <i type="int" name="I_CONSTRAINED_M">     0</i>
  <separator name="electronic exchange-correlation" >
   <i type="string" name="GGA">PE</i>
   <i type="int" name="VOSKOWN">     0</i>
   <i type="logical" name="LHFCALC"> F  </i>
   <i type="string" name="PRECFOCK"></i>
   <i type="logical" name="LSYMGRAD"> F  </i>
   <i type="logical" name="LHFONE"> F  </i>
   <i type="logical" name="LRHFCALC"> F  </i>
   <i type="logical" name="LTHOMAS"> F  </i>
   <i type="logical" name="LMODELHF"> F  </i>
   <i type="logical" name="LFOCKACE"> F  </i>
   <i name="ENCUT4O">     -1.00000000</i>
   <i type="int" name="EXXOEP">     0</i>
   <i type="int" name="FOURORBIT">     0</i>
   <i name="AEXX">      0.00000000</i>
   <i name="HFALPHA">      0.00000000</i>
   <i name="MCALPHA">      0.00000000</i>
   <i name="ALDAX">      1.00000000</i>
   <i name="AGGAX">      1.00000000</i>
   <i name="ALDAC">      1.00000000</i>
   <i name="AGGAC">      1.00000000</i>
   <i type="int" name="NKREDX">     1</i>
   <i type="int" name="NKREDY">     1</i>
   <i type="int" name="NKREDZ">     1</i>
   <i type="logical" name="SHIFTRED"> F  </i>
   <i type="logical" name="ODDONLY"> F  </i>
   <i type="logical" name="EVENONLY"> F  </i>
   <i type="int" name="LMAXFOCK">     0</i>
   <i type="int" name="NMAXFOCKAE">     0</i>
   <i type="logical" name="LFOCKAEDFT"> F  </i>
   <i name="HFSCREEN">      0.00000000</i>
   <i name="HFSCREENC">      0.00000000</i>
   <i type="int" name="NBANDSGWLOW">     0</i>
  </separator>
  <separator name="vdW DFT" >
   <i type="logical" name="LUSE_VDW"> F  </i>
   <i name="Zab_VDW">     -0.84910000</i>
   <i name="PARAM1">      0.12340000</i>
   <i name="PARAM2">      1.00000000</i>
   <i name="PARAM3">      0.00000000</i>
  </separator>
  <separator name="model GW" >
   <i type="int" name="MODEL_GW">     0</i>
   <i name="MODEL_EPS0">     19.41406740</i>
   <i name="MODEL_ALPHA">      1.00000000</i>
  </separator>
  <separator name="linear response parameters" >
   <i type="logical" name="LEPSILON"> F  </i>
   <i type="logical" name="LRPA"> F  </i>
   <i type="logical" name="LNABLA"> F  </i>
   <i type="logical" name="LVEL"> F  </i>
   <i type="int" name="KINTER">     0</i>
   <i name="CSHIFT">      0.10000000</i>
   <i name="OMEGAMAX">     -1.00000000</i>
   <i name="DEG_THRESHOLD">      0.00200000</i>
   <i name="RTIME">     -0.10000000</i>
   <i name="WPLASMAI">      0.00000000</i>
   <v name="DFIELD">      0.00000000      0.00000000      0.00000000</v>
   <v name="WPLASMA">      0.00000000      0.00000000      0.00000000      0.00000000      0.00000000      0.00000000      0.00000000      0.00000000      0.00000000</v>
  </separator>
  <separator name="orbital magnetization" >
   <i type="logical" name="NUCIND"> F  </i>
   <v name="MAGPOS">      0.00000000      0.00000000      0.00000000</v>
   <i type="logical" name="LNICSALL"> T  </i>
   <i type="logical" name="ORBITALMAG"> F  </i>
   <i type="logical" name="LMAGBLOCH"> F  </i>
   <i type="logical" name="LCHIMAG"> F  </i>
   <i type="logical" name="LGAUGE"> T  </i>
   <i type="int" name="MAGATOM">     0</i>
   <v name="MAGDIPOL">      0.00000000      0.00000000      0.00000000</v>
   <v name="AVECCONST">      0.00000000      0.00000000      0.00000000</v>
  </separator>
  <separator name="response functions" >
   <i type="logical" name="LFINITE_TEMPERATURE"> F  </i>
   <i type="logical" name="LADDER"> F  </i>
   <i type="logical" name="LRPAFORCE"> F  </i>
   <i type="logical" name="LFXC"> F  </i>
   <i type="logical" name="LHARTREE"> T  </i>
   <i type="int" name="IBSE">     0</i>
   <v type="int" name="KPOINT">    -1     0     0     0</v>
   <i type="logical" name="LTCTC"> F  </i>
   <i type="logical" name="LTCTE"> F  </i>
   <i type="logical" name="LTETE"> F  </i>
   <i type="logical" name="LTRIPLET"> F  </i>
   <i type="logical" name="LFXCEPS"> F  </i>
   <i type="logical" name="LFXHEG"> F  </i>
   <i type="int" name="NATURALO">     2</i>
   <i type="logical" name="LHOLEGF"> F  </i>
   <i type="logical" name="L2ORDER"> F  </i>
   <i type="logical" name="LDMP1"> F  </i>
   <i type="logical" name="LMP2LT"> F  </i>
   <i type="logical" name="LSMP2LT"> F  </i>
   <i type="logical" name="LGWLF"> F  </i>
   <i name="ENCUTGW">     -2.00000000</i>
   <i name="ENCUTGWSOFT">     -2.00000000</i>
   <i name="ENCUTLF">     -1.00000000</i>
   <i type="logical" name="LESF_SPLINES"> F  </i>
   <i type="int" name="LMAXMP2">    -1</i>
   <i name="SCISSOR">      0.00000000</i>
   <i type="int" name="NOMEGA">     0</i>
   <i type="int" name="NOMEGAR">     0</i>
   <i type="int" name="NBANDSGW">    -1</i>
   <i type="int" name="NBANDSO">    -1</i>
   <i type="int" name="NBANDSV">    -1</i>
   <i type="int" name="NELM">   150</i>
   <i type="int" name="NELMHF">     1</i>
   <i type="int" name="DIM">     3</i>
   <i type="int" name="IESPILON">     4</i>
   <i type="int" name="ANTIRES">     0</i>
   <i name="OMEGAMAX">    -30.00000000</i>
   <i name="OMEGAMIN">    -30.00000000</i>
   <i name="OMEGATL">   -200.00000000</i>
   <i type="int" name="OMEGAGRID">     0</i>
   <i name="CSHIFT">     -0.10000000</i>
   <i type="logical" name="LSELFENERGY"> F  </i>
   <i type="logical" name="LSPECTRAL"> F  </i>
   <i type="logical" name="LSPECTRALGW"> F  </i>
   <i type="logical" name="LSINGLES"> F  </i>
   <i type="logical" name="LFERMIGW"> F  </i>
   <i type="logical" name="ODDONLYGW"> F  </i>
   <i type="logical" name="EVENONLYGW"> F  </i>
   <i type="int" name="NKREDLFX">     1</i>
   <i type="int" name="NKREDLFY">     1</i>
   <i type="int" name="NKREDLFZ">     1</i>
   <i type="int" name="MAXMEM">  2800</i>
   <i type="int" name="TELESCOPE">     0</i>
   <i type="int" name="NTAUPAR">    -1</i>
   <i type="int" name="NOMEGAPAR">    -1</i>
   <i name="DAMP_NEWTON">      0.80000001</i>
   <i name="LAMBDA">      1.00000000</i>
  </separator>
  <separator name="External order field" >
   <i name="OFIELD_KAPPA">      0.00000000</i>
   <v name="OFIELD_K">      0.00000000      0.00000000      0.00000000</v>
   <i name="OFIELD_Q6_NEAR">      0.00000000</i>
   <i name="OFIELD_Q6_FAR">      0.00000000</i>
   <i name="OFIELD_A">      0.00000000</i>
  </separator>
 </parameters>
 <atominfo>
  <atoms>      20 </atoms>
  <types>       3 </types>
  <array name="atoms" >
   <dimension dim="1">ion</dimension>
   <field type="string">element</field>
   <field type="int">atomtype</field>
   <set>
    <rc><c>Na</c><c>   1</c></rc>
    <rc><c>Na</c><c>   1</c></rc>
    <rc><c>Na</c><c>   1</c></rc>
    <rc><c>Na</c><c>   1</c></rc>
    <rc><c>Na</c><c>   1</c></rc>
    <rc><c>Na</c><c>   1</c></rc>
    <rc><c>Na</c><c>   1</c></rc>
    <rc><c>Na</c><c>   1</c></rc>
    <rc><c>Na</c><c>   1</c></rc>
    <rc><c>Na</c><c>   1</c></rc>
    <rc><c>Na</c><c>   1</c></rc>
    <rc><c>Na</c><c>   1</c></rc>
    <rc><c>O </c><c>   2</c></rc>
    <rc><c>O </c><c>   2</c></rc>
    <rc><c>O </c><c>   2</c></rc>
    <rc><c>O </c><c>   2</c></rc>
    <rc><c>Cl</c><c>   3</c></rc>
    <rc><c>Cl</c><c>   3</c></rc>
    <rc><c>Cl</c><c>   3</c></rc>
    <rc><c>Cl</c><c>   3</c></rc>
   </set>
  </array>
  <array name="atomtypes" >
   <dimension dim="1">type</dimension>
   <field type="int">atomspertype</field>
   <field type="string">element</field>
   <field>mass</field>
   <field>valence</field>
   <field type="string">pseudopotential</field>
   <set>
    <rc><c>  12</c><c>Na</c><c>     22.99000000</c><c>      1.00000000</c><c>  PAW_PBE Na 08Apr2002                  </c></rc>
    <rc><c>   4</c><c>O </c><c>     16.00000000</c><c>      6.00000000</c><c>  PAW_PBE O 08Apr2002                   </c></rc>
    <rc><c>   4</c><c>Cl</c><c>     35.45300000</c><c>      7.00000000</c><c>  PAW_PBE Cl 06Sep2000                  </c></rc>
   </set>
  </array>
 </atominfo>
 <structure name="initialpos" >
  <crystal>
   <varray name="basis" >
    <v>      -3.15184252      -3.15184252       0.00000000 </v>
    <v>       4.45737844      -4.45737844       0.00000000 </v>
    <v>      16.28569382     -16.28569382      23.03144907 </v>
   </varray>
   <i name="volume">    647.13558004 </i>
   <varray name="rec_basis" >
    <v>      -0.15863737      -0.15863737       0.00000000 </v>
    <v>       0.11217356      -0.11217356      -0.15863737 </v>
    <v>       0.00000000       0.00000000       0.04341889 </v>
   </varray>
  </crystal>
  <varray name="positions" >
   <v>       0.50000017       0.49999983       0.26051335 </v>
   <v>       0.00000010       0.49999983       0.32893812 </v>
   <v>       0.50000017       0.99999990       0.26051335 </v>
   <v>       0.50000017       0.49999983       0.39736286 </v>
   <v>       0.00000010       0.49999983       0.46578763 </v>
   <v>       0.50000017       0.00000010       0.39736286 </v>
   <v>       0.50000017       0.49999983       0.53421237 </v>
   <v>       0.00000010       0.49999983       0.60263714 </v>
   <v>       0.50000017       0.99999990       0.53421237 </v>
   <v>       0.50000017       0.49999983       0.67106188 </v>
   <v>       0.00000010       0.49999983       0.73948665 </v>
   <v>       0.50000017       0.00000010       0.67106188 </v>
   <v>       0.50000017       0.49999983       0.32893812 </v>
   <v>       0.50000017       0.49999983       0.46578763 </v>
   <v>       0.50000017       0.49999983       0.60263714 </v>
   <v>       0.50000017       0.49999983       0.73948665 </v>
   <v>       0.00000010       0.99999990       0.32893810 </v>
   <v>       0.00000010       0.00000010       0.46578761 </v>
   <v>       0.00000010       0.99999990       0.60263712 </v>
   <v>       0.00000010       0.99999990       0.73948663 </v>
  </varray>
 </structure>
 <calculation>
  <scstep>
   <time name="dav">    0.16    0.17</time>
   <time name="total">    0.22    0.23</time>
   <dipole>
    <v name="dipole">      0.00261428      -0.00261428       0.00369715 </v>
    <i name="Tr[quadrupol]">   -403.39626282 </i>
    <i name="Echarged">      0.00000000 </i>
    <i name="Edipol_quadrupol">      0.00000000 </i>
    <i name="Eion">      0.00000000 </i>
   </dipole>
   <energy>
    <i name="alphaZ">     -0.63992532 </i>
    <i name="ewald">   3205.49694447 </i>
    <i name="hartreedc">  -6266.86116544 </i>
    <i name="XCdc">   -249.28700799 </i>
    <i name="pawpsdc">   3165.81388983 </i>
    <i name="pawaedc">  -2723.36158796 </i>
    <i name="eentropy">     -0.03787642 </i>
    <i name="bandstr">    -57.85790021 </i>
    <i name="atom">   3429.81723989 </i>
    <i name="e_fr_energy">    503.08261084 </i>
    <i name="e_wo_entrp">    503.12048726 </i>
    <i name="e_0_energy">    503.10154905 </i>
   </energy>
  </scstep>
  <scstep>
   <time name="dav">    0.17    0.18</time>
   <time name="total">    0.17    0.18</time>
   <dipole>
    <v name="dipole">      0.00261428      -0.00261428       0.00369715 </v>
    <i name="Tr[quadrupol]">   -403.39626282 </i>
    <i name="Echarged">      0.00000000 </i>
    <i name="Edipol_quadrupol">      0.00000000 </i>
    <i name="Eion">      0.00000000 </i>
   </dipole>
   <energy>
    <i name="e_fr_energy">     31.49669752 </i>
    <i name="e_wo_entrp">     31.49669752 </i>
    <i name="e_0_energy">     31.49669752 </i>
   </energy>
  </scstep>
  <scstep>
   <time name="dav">    0.15    0.16</time>
   <time name="total">    0.15    0.16</time>
   <dipole>
    <v name="dipole">      0.00261428      -0.00261428       0.00369715 </v>
    <i name="Tr[quadrupol]">   -403.39626282 </i>
    <i name="Echarged">      0.00000000 </i>
    <i name="Edipol_quadrupol">      0.00000000 </i>
    <i name="Eion">      0.00000000 </i>
   </dipole>
   <energy>
    <i name="e_fr_energy">    -87.53252119 </i>
    <i name="e_wo_entrp">    -87.53252119 </i>
    <i name="e_0_energy">    -87.53252119 </i>
   </energy>
  </scstep>
  <scstep>
   <time name="dav">    0.16    0.16</time>
   <time name="total">    0.16    0.16</time>
   <dipole>
    <v name="dipole">      0.00261428      -0.00261428       0.00369715 </v>
    <i name="Tr[quadrupol]">   -403.39626282 </i>
    <i name="Echarged">      0.00000000 </i>
    <i name="Edipol_quadrupol">      0.00000000 </i>
    <i name="Eion">      0.00000000 </i>
   </dipole>
   <energy>
    <i name="e_fr_energy">    -91.46539514 </i>
    <i name="e_wo_entrp">    -91.46539514 </i>
    <i name="e_0_energy">    -91.46539514 </i>
   </energy>
  </scstep>
  <scstep>
   <time name="dav">    0.14    0.14</time>
   <time name="total">    0.16    0.16</time>
   <dipole>
    <v name="dipole">      0.00261428      -0.00261428       0.00369715 </v>
    <i name="Tr[quadrupol]">   -403.39626282 </i>
    <i name="Echarged">      0.00000000 </i>
    <i name="Edipol_quadrupol">      0.00000000 </i>
    <i name="Eion">      0.00000000 </i>
   </dipole>
   <energy>
    <i name="e_fr_energy">    -91.58155472 </i>
    <i name="e_wo_entrp">    -91.58155472 </i>
    <i name="e_0_energy">    -91.58155472 </i>
   </energy>
  </scstep>
  <scstep>
   <time name="diag">    0.04    0.04</time>
   <time name="diis">    0.04    0.04</time>
   <time name="orth">    0.01    0.01</time>
   <time name="total">    0.16    0.16</time>
   <dipole>
    <v name="dipole">      0.78150130      -0.78150130       1.10520973 </v>
    <i name="Tr[quadrupol]">   -408.57565854 </i>
    <i name="Echarged">      0.00000000 </i>
    <i name="Edipol_quadrupol">      0.00000000 </i>
    <i name="Eion">      0.00000000 </i>
   </dipole>
   <energy>
    <i name="e_fr_energy">    -70.28031239 </i>
    <i name="e_wo_entrp">    -70.19572748 </i>
    <i name="e_0_energy">    -70.23801993 </i>
   </energy>
  </scstep>
  <scstep>
   <time name="diag">    0.04    0.04</time>
   <time name="diis">    0.04    0.04</time>
   <time name="orth">    0.00    0.00</time>
   <time name="total">    0.15    0.15</time>
   <dipole>
    <v name="dipole">      0.24492202      -0.24492202       0.34637205 </v>
    <i name="Tr[quadrupol]">   -410.30338017 </i>
    <i name="Echarged">      0.00000000 </i>
    <i name="Edipol_quadrupol">      0.00000000 </i>
    <i name="Eion">      0.00000000 </i>
   </dipole>
   <energy>
    <i name="e_fr_energy">    -72.72888033 </i>
    <i name="e_wo_entrp">    -72.72888033 </i>
    <i name="e_0_energy">    -72.72888033 </i>
   </energy>
  </scstep>
  <scstep>
   <time name="diag">    0.23    0.29</time>
   <time name="diis">    0.05    0.05</time>
   <time name="orth">    0.00    0.01</time>
   <time name="total">    0.37    0.44</time>
   <dipole>
    <v name="dipole">      0.60596280      -0.60596280       0.85696081 </v>
    <i name="Tr[quadrupol]">   -412.40182041 </i>
    <i name="Echarged">      0.00000000 </i>
    <i name="Edipol_quadrupol">      0.00000000 </i>
    <i name="Eion">      0.00000000 </i>
   </dipole>
   <energy>
    <i name="e_fr_energy">    -69.88114016 </i>
    <i name="e_wo_entrp">    -69.88114016 </i>
    <i name="e_0_energy">    -69.88114016 </i>
   </energy>
  </scstep>
  <scstep>
   <time name="diag">    0.04    0.04</time>
   <time name="diis">    0.05    0.05</time>
   <time name="orth">    0.01    0.01</time>
   <time name="total">    0.16    0.17</time>
   <dipole>
    <v name="dipole">      1.79991755      -1.79991755       2.54546781 </v>
    <i name="Tr[quadrupol]">   -419.25978874 </i>
    <i name="Echarged">      0.00000000 </i>
    <i name="Edipol_quadrupol">      0.00000000 </i>
    <i name="Eion">      0.00000000 </i>
   </dipole>
   <energy>
    <i name="e_fr_energy">    -88.37162311 </i>
    <i name="e_wo_entrp">    -88.35907490 </i>
    <i name="e_0_energy">    -88.36534901 </i>
   </energy>
  </scstep>
  <scstep>
   <time name="diag">    0.03    0.04</time>
   <time name="diis">    0.04    0.04</time>
   <time name="orth">    0.01    0.01</time>
   <time name="total">    0.15    0.15</time>
   <dipole>
    <v name="dipole">      1.41912520      -1.41912520       2.00694610 </v>
    <i name="Tr[quadrupol]">   -418.47350721 </i>
    <i name="Echarged">      0.00000000 </i>
    <i name="Edipol_quadrupol">      0.00000000 </i>
    <i name="Eion">      0.00000000 </i>
   </dipole>
   <energy>
    <i name="e_fr_energy">    -74.97514248 </i>
    <i name="e_wo_entrp">    -74.92234053 </i>
    <i name="e_0_energy">    -74.94874151 </i>
   </energy>
  </scstep>
  <scstep>
   <time name="diag">    0.04    0.04</time>
   <time name="diis">    0.04    0.04</time>
   <time name="orth">    0.00    0.00</time>
   <time name="total">    0.15    0.15</time>
   <dipole>
    <v name="dipole">      1.21092835      -1.21092835       1.71251129 </v>
    <i name="Tr[quadrupol]">   -418.09488974 </i>
    <i name="Echarged">      0.00000000 </i>
    <i name="Edipol_quadrupol">      0.00000000 </i>
    <i name="Eion">      0.00000000 </i>
   </dipole>
   <energy>
    <i name="e_fr_energy">    -69.96396242 </i>
    <i name="e_wo_entrp">    -69.87148633 </i>
    <i name="e_0_energy">    -69.91772437 </i>
   </energy>
  </scstep>
  <scstep>
   <time name="diag">    0.04    0.04</time>
   <time name="diis">    0.05    0.05</time>
   <time name="orth">    0.00    0.00</time>
   <time name="total">    0.15    0.16</time>
   <dipole>
    <v name="dipole">      0.99369871      -0.99369871       1.40530219 </v>
    <i name="Tr[quadrupol]">   -417.55220730 </i>
    <i name="Echarged">      0.00000000 </i>
    <i name="Edipol_quadrupol">      0.00000000 </i>
    <i name="Eion">      0.00000000 </i>
   </dipole>
   <energy>
    <i name="e_fr_energy">    -68.01100852 </i>
    <i name="e_wo_entrp">    -67.94928977 </i>
    <i name="e_0_energy">    -67.98014915 </i>
   </energy>
  </scstep>
  <scstep>
   <time name="diag">    0.04    0.04</time>
   <time name="diis">    0.04    0.04</time>
   <time name="orth">    0.00    0.00</time>
   <time name="total">    0.16    0.16</time>
   <dipole>
    <v name="dipole">      0.95208440      -0.95208440       1.34645067 </v>
    <i name="Tr[quadrupol]">   -419.18165218 </i>
    <i name="Echarged">      0.00000000 </i>
    <i name="Edipol_quadrupol">      0.00000000 </i>
    <i name="Eion">      0.00000000 </i>
   </dipole>
   <energy>
    <i name="e_fr_energy">    -68.29197877 </i>
    <i name="e_wo_entrp">    -68.24864558 </i>
    <i name="e_0_energy">    -68.27031217 </i>
   </energy>
  </scstep>
  <scstep>
   <time name="diag">    0.04    0.04</time>
   <time name="diis">    0.04    0.04</time>
   <time name="orth">    0.00    0.00</time>
   <time name="total">    0.15    0.16</time>
   <dipole>
    <v name="dipole">      0.96347657      -0.96347657       1.36256163 </v>
    <i name="Tr[quadrupol]">   -419.04449205 </i>
    <i name="Echarged">      0.00000000 </i>
    <i name="Edipol_quadrupol">      0.00000000 </i>
    <i name="Eion">      0.00000000 </i>
   </dipole>
   <energy>
    <i name="e_fr_energy">    -68.16982572 </i>
    <i name="e_wo_entrp">    -68.12419732 </i>
    <i name="e_0_energy">    -68.14701152 </i>
   </energy>
  </scstep>
  <scstep>
   <time name="diag">    0.04    0.04</time>
   <time name="diis">    0.04    0.04</time>
   <time name="orth">    0.01    0.01</time>
   <time name="total">    0.16    0.16</time>
   <dipole>
    <v name="dipole">      1.01842163      -1.01842163       1.44026569 </v>
    <i name="Tr[quadrupol]">   -419.37899143 </i>
    <i name="Echarged">      0.00000000 </i>
    <i name="Edipol_quadrupol">      0.00000000 </i>
    <i name="Eion">      0.00000000 </i>
   </dipole>
   <energy>
    <i name="e_fr_energy">    -68.02098134 </i>
    <i name="e_wo_entrp">    -67.96444970 </i>
    <i name="e_0_energy">    -67.99271552 </i>
   </energy>
  </scstep>
  <scstep>
   <time name="diag">    0.04    0.04</time>
   <time name="diis">    0.04    0.04</time>
   <time name="orth">    0.00    0.00</time>
   <time name="total">    0.15    0.15</time>
   <dipole>
    <v name="dipole">      1.01363686      -1.01363686       1.43349900 </v>
    <i name="Tr[quadrupol]">   -420.54263881 </i>
    <i name="Echarged">      0.00000000 </i>
    <i name="Edipol_quadrupol">      0.00000000 </i>
    <i name="Eion">      0.00000000 </i>
   </dipole>
   <energy>
    <i name="e_fr_energy">    -68.04133663 </i>
    <i name="e_wo_entrp">    -67.98356412 </i>
    <i name="e_0_energy">    -68.01245037 </i>
   </energy>
  </scstep>
  <scstep>
   <time name="diag">    0.04    0.04</time>
   <time name="diis">    0.04    0.04</time>
   <time name="orth">    0.00    0.00</time>
   <time name="total">    0.15    0.15</time>
   <dipole>
    <v name="dipole">      1.02428838      -1.02428838       1.44856251 </v>
    <i name="Tr[quadrupol]">   -421.18264262 </i>
    <i name="Echarged">      0.00000000 </i>
    <i name="Edipol_quadrupol">      0.00000000 </i>
    <i name="Eion">      0.00000000 </i>
   </dipole>
   <energy>
    <i name="e_fr_energy">    -68.04363255 </i>
    <i name="e_wo_entrp">    -67.98455034 </i>
    <i name="e_0_energy">    -68.01409145 </i>
   </energy>
  </scstep>
  <scstep>
   <time name="diag">    0.04    0.04</time>
   <time name="diis">    0.04    0.04</time>
   <time name="orth">    0.00    0.00</time>
   <time name="total">    0.15    0.15</time>
   <dipole>
    <v name="dipole">      1.06877210      -1.06877210       1.51147200 </v>
    <i name="Tr[quadrupol]">   -421.98641664 </i>
    <i name="Echarged">      0.00000000 </i>
    <i name="Edipol_quadrupol">      0.00000000 </i>
    <i name="Eion">      0.00000000 </i>
   </dipole>
   <energy>
    <i name="e_fr_energy">    -67.99474131 </i>
    <i name="e_wo_entrp">    -67.93761479 </i>
    <i name="e_0_energy">    -67.96617805 </i>
   </energy>
  </scstep>
  <scstep>
   <time name="diag">    0.04    0.04</time>
   <time name="diis">    0.04    0.04</time>
   <time name="orth">    0.00    0.00</time>
   <time name="total">    0.15    0.15</time>
   <dipole>
    <v name="dipole">      1.12583226      -1.12583226       1.59216726 </v>
    <i name="Tr[quadrupol]">   -422.84381321 </i>
    <i name="Echarged">      0.00000000 </i>
    <i name="Edipol_quadrupol">      0.00000000 </i>
    <i name="Eion">      0.00000000 </i>
   </dipole>
   <energy>
    <i name="e_fr_energy">    -67.94487888 </i>
    <i name="e_wo_entrp">    -67.86362736 </i>
    <i name="e_0_energy">    -67.90425312 </i>
   </energy>
  </scstep>
  <scstep>
   <time name="diag">    0.07    0.09</time>
   <time name="diis">    0.05    0.05</time>
   <time name="orth">    0.06    0.12</time>
   <time name="total">    0.25    0.33</time>
   <dipole>
    <v name="dipole">      1.13175590      -1.13175590       1.60054454 </v>
    <i name="Tr[quadrupol]">   -422.89039549 </i>
    <i name="Echarged">      0.00000000 </i>
    <i name="Edipol_quadrupol">      0.00000000 </i>
    <i name="Eion">      0.00000000 </i>
   </dipole>
   <energy>
    <i name="e_fr_energy">    -67.93992991 </i>
    <i name="e_wo_entrp">    -67.85641414 </i>
    <i name="e_0_energy">    -67.89817202 </i>
   </energy>
  </scstep>
  <scstep>
   <time name="diag">    0.03    0.04</time>
   <time name="diis">    0.05    0.05</time>
   <time name="orth">    0.00    0.00</time>
   <time name="total">    0.17    0.17</time>
   <dipole>
    <v name="dipole">      1.13138250      -1.13138250       1.60001648 </v>
    <i name="Tr[quadrupol]">   -422.90274173 </i>
    <i name="Echarged">      0.00000000 </i>
    <i name="Edipol_quadrupol">      0.00000000 </i>
    <i name="Eion">      0.00000000 </i>
   </dipole>
   <energy>
    <i name="e_fr_energy">    -67.94010466 </i>
    <i name="e_wo_entrp">    -67.85656295 </i>
    <i name="e_0_energy">    -67.89833380 </i>
   </energy>
  </scstep>
  <scstep>
   <time name="diag">    0.04    0.04</time>
   <time name="diis">    0.05    0.05</time>
   <time name="orth">    0.00    0.00</time>
   <time name="total">    0.15    0.15</time>
   <dipole>
    <v name="dipole">      1.14520633      -1.14520633       1.61956633 </v>
    <i name="Tr[quadrupol]">   -422.95181748 </i>
    <i name="Echarged">      0.00000000 </i>
    <i name="Edipol_quadrupol">      0.00000000 </i>
    <i name="Eion">      0.00000000 </i>
   </dipole>
   <energy>
    <i name="e_fr_energy">    -67.93185570 </i>
    <i name="e_wo_entrp">    -67.84497325 </i>
    <i name="e_0_energy">    -67.88841447 </i>
   </energy>
  </scstep>
  <scstep>
   <time name="diag">    0.04    0.04</time>
   <time name="diis">    0.05    0.05</time>
   <time name="orth">    0.00    0.00</time>
   <time name="total">    0.16    0.16</time>
   <dipole>
    <v name="dipole">      1.14951701      -1.14951701       1.62566255 </v>
    <i name="Tr[quadrupol]">   -422.94695645 </i>
    <i name="Echarged">      0.00000000 </i>
    <i name="Edipol_quadrupol">      0.00000000 </i>
    <i name="Eion">      0.00000000 </i>
   </dipole>
   <energy>
    <i name="e_fr_energy">    -67.92683594 </i>
    <i name="e_wo_entrp">    -67.84558764 </i>
    <i name="e_0_energy">    -67.88621179 </i>
   </energy>
  </scstep>
  <scstep>
   <time name="diag">    0.04    0.04</time>
   <time name="diis">    0.04    0.05</time>
   <time name="orth">    0.00    0.00</time>
   <time name="total">    0.15    0.15</time>
   <dipole>
    <v name="dipole">      1.16253562      -1.16253562       1.64407365 </v>
    <i name="Tr[quadrupol]">   -423.09719832 </i>
    <i name="Echarged">      0.00000000 </i>
    <i name="Edipol_quadrupol">      0.00000000 </i>
    <i name="Eion">      0.00000000 </i>
   </dipole>
   <energy>
    <i name="e_fr_energy">    -67.92231748 </i>
    <i name="e_wo_entrp">    -67.83469023 </i>
    <i name="e_0_energy">    -67.87850385 </i>
   </energy>
  </scstep>
  <scstep>
   <time name="diag">    0.04    0.04</time>
   <time name="diis">    0.04    0.04</time>
   <time name="orth">    0.00    0.00</time>
   <time name="total">    0.15    0.15</time>
   <dipole>
    <v name="dipole">      1.16259823      -1.16259823       1.64416218 </v>
    <i name="Tr[quadrupol]">   -423.25672031 </i>
    <i name="Echarged">      0.00000000 </i>
    <i name="Edipol_quadrupol">      0.00000000 </i>
    <i name="Eion">      0.00000000 </i>
   </dipole>
   <energy>
    <i name="e_fr_energy">    -67.92022105 </i>
    <i name="e_wo_entrp">    -67.83822273 </i>
    <i name="e_0_energy">    -67.87922189 </i>
   </energy>
  </scstep>
  <scstep>
   <time name="diag">    0.04    0.04</time>
   <time name="diis">    0.04    0.04</time>
   <time name="orth">    0.01    0.01</time>
   <time name="total">    0.15    0.15</time>
   <dipole>
    <v name="dipole">      1.16545831      -1.16545831       1.64820694 </v>
    <i name="Tr[quadrupol]">   -423.43237558 </i>
    <i name="Echarged">      0.00000000 </i>
    <i name="Edipol_quadrupol">      0.00000000 </i>
    <i name="Eion">      0.00000000 </i>
   </dipole>
   <energy>
    <i name="e_fr_energy">    -67.91840327 </i>
    <i name="e_wo_entrp">    -67.83659855 </i>
    <i name="e_0_energy">    -67.87750091 </i>
   </energy>
  </scstep>
  <scstep>
   <time name="diag">    0.04    0.04</time>
   <time name="diis">    0.04    0.04</time>
   <time name="orth">    0.00    0.00</time>
   <time name="total">    0.16    0.16</time>
   <dipole>
    <v name="dipole">      1.16603836      -1.16603836       1.64902727 </v>
    <i name="Tr[quadrupol]">   -423.72195612 </i>
    <i name="Echarged">      0.00000000 </i>
    <i name="Edipol_quadrupol">      0.00000000 </i>
    <i name="Eion">      0.00000000 </i>
   </dipole>
   <energy>
    <i name="e_fr_energy">    -67.91848174 </i>
    <i name="e_wo_entrp">    -67.84136852 </i>
    <i name="e_0_energy">    -67.87992513 </i>
   </energy>
  </scstep>
  <scstep>
   <time name="diag">    0.04    0.04</time>
   <time name="diis">    0.04    0.04</time>
   <time name="orth">    0.01    0.01</time>
   <time name="total">    0.15    0.15</time>
   <dipole>
    <v name="dipole">      1.16961661      -1.16961661       1.65408767 </v>
    <i name="Tr[quadrupol]">   -423.82761669 </i>
    <i name="Echarged">      0.00000000 </i>
    <i name="Edipol_quadrupol">      0.00000000 </i>
    <i name="Eion">      0.00000000 </i>
   </dipole>
   <energy>
    <i name="e_fr_energy">    -67.91589756 </i>
    <i name="e_wo_entrp">    -67.83622162 </i>
    <i name="e_0_energy">    -67.87605959 </i>
   </energy>
  </scstep>
  <scstep>
   <time name="diag">    0.04    0.04</time>
   <time name="diis">    0.04    0.04</time>
   <time name="orth">    0.00    0.00</time>
   <time name="total">    0.15    0.15</time>
   <dipole>
    <v name="dipole">      1.16860317      -1.16860317       1.65265445 </v>
    <i name="Tr[quadrupol]">   -423.84599126 </i>
    <i name="Echarged">      0.00000000 </i>
    <i name="Edipol_quadrupol">      0.00000000 </i>
    <i name="Eion">      0.00000000 </i>
   </dipole>
   <energy>
    <i name="e_fr_energy">    -67.91668320 </i>
    <i name="e_wo_entrp">    -67.83761945 </i>
    <i name="e_0_energy">    -67.87715132 </i>
   </energy>
  </scstep>
  <scstep>
   <time name="diag">    0.04    0.04</time>
   <time name="diis">    0.04    0.04</time>
   <time name="orth">    0.00    0.00</time>
   <time name="total">    0.15    0.15</time>
   <dipole>
    <v name="dipole">      1.16587664      -1.16587664       1.64879855 </v>
    <i name="Tr[quadrupol]">   -423.88804881 </i>
    <i name="Echarged">      0.00000000 </i>
    <i name="Edipol_quadrupol">      0.00000000 </i>
    <i name="Eion">      0.00000000 </i>
   </dipole>
   <energy>
    <i name="e_fr_energy">    -67.91867048 </i>
    <i name="e_wo_entrp">    -67.84130555 </i>
    <i name="e_0_energy">    -67.87998802 </i>
   </energy>
  </scstep>
  <scstep>
   <time name="diag">    0.04    0.04</time>
   <time name="diis">    0.05    0.05</time>
   <time name="orth">    0.00    0.00</time>
   <time name="total">    0.15    0.15</time>
   <dipole>
    <v name="dipole">      1.16751455      -1.16751455       1.65111491 </v>
    <i name="Tr[quadrupol]">   -423.94306687 </i>
    <i name="Echarged">      0.00000000 </i>
    <i name="Edipol_quadrupol">      0.00000000 </i>
    <i name="Eion">      0.00000000 </i>
   </dipole>
   <energy>
    <i name="e_fr_energy">    -67.91744293 </i>
    <i name="e_wo_entrp">    -67.83763659 </i>
    <i name="e_0_energy">    -67.87753976 </i>
   </energy>
  </scstep>
  <scstep>
   <time name="diag">    0.03    0.04</time>
   <time name="diis">    0.04    0.04</time>
   <time name="orth">    0.01    0.01</time>
   <time name="total">    0.15    0.15</time>
   <dipole>
    <v name="dipole">      1.16648901      -1.16648901       1.64966458 </v>
    <i name="Tr[quadrupol]">   -423.95937487 </i>
    <i name="Echarged">      0.00000000 </i>
    <i name="Edipol_quadrupol">      0.00000000 </i>
    <i name="Eion">      0.00000000 </i>
   </dipole>
   <energy>
    <i name="e_fr_energy">    -67.91815662 </i>
    <i name="e_wo_entrp">    -67.83859503 </i>
    <i name="e_0_energy">    -67.87837583 </i>
   </energy>
  </scstep>
  <scstep>
   <time name="diag">    0.04    0.04</time>
   <time name="diis">    0.08    0.14</time>
   <time name="orth">    0.10    0.10</time>
   <time name="total">    0.30    0.41</time>
   <dipole>
    <v name="dipole">      1.16581715      -1.16581715       1.64871442 </v>
    <i name="Tr[quadrupol]">   -423.97364750 </i>
    <i name="Echarged">      0.00000000 </i>
    <i name="Edipol_quadrupol">      0.00000000 </i>
    <i name="Eion">      0.00000000 </i>
   </dipole>
   <energy>
    <i name="e_fr_energy">    -67.91861015 </i>
    <i name="e_wo_entrp">    -67.83919450 </i>
    <i name="e_0_energy">    -67.87890233 </i>
   </energy>
  </scstep>
  <scstep>
   <time name="diag">    0.04    0.04</time>
   <time name="diis">    0.04    0.04</time>
   <time name="orth">    0.00    0.00</time>
   <time name="total">    0.15    0.15</time>
   <dipole>
    <v name="dipole">      1.16564684      -1.16564684       1.64847357 </v>
    <i name="Tr[quadrupol]">   -423.97654115 </i>
    <i name="Echarged">      0.00000000 </i>
    <i name="Edipol_quadrupol">      0.00000000 </i>
    <i name="Eion">      0.00000000 </i>
   </dipole>
   <energy>
    <i name="e_fr_energy">    -67.91872366 </i>
    <i name="e_wo_entrp">    -67.83909003 </i>
    <i name="e_0_energy">    -67.87890684 </i>
   </energy>
  </scstep>
  <scstep>
   <time name="diag">    0.04    0.04</time>
   <time name="diis">    0.04    0.04</time>
   <time name="orth">    0.00    0.00</time>
   <time name="total">    0.15    0.15</time>
   <dipole>
    <v name="dipole">      1.16506810      -1.16506810       1.64765511 </v>
    <i name="Tr[quadrupol]">   -423.97549841 </i>
    <i name="Echarged">      0.00000000 </i>
    <i name="Edipol_quadrupol">      0.00000000 </i>
    <i name="Eion">      0.00000000 </i>
   </dipole>
   <energy>
    <i name="e_fr_energy">    -67.91910359 </i>
    <i name="e_wo_entrp">    -67.83950897 </i>
    <i name="e_0_energy">    -67.87930628 </i>
   </energy>
  </scstep>
  <scstep>
   <time name="diag">    0.04    0.04</time>
   <time name="diis">    0.04    0.04</time>
   <time name="orth">    0.00    0.00</time>
   <time name="total">    0.15    0.15</time>
   <dipole>
    <v name="dipole">      1.16473401      -1.16473401       1.64718264 </v>
    <i name="Tr[quadrupol]">   -423.97507656 </i>
    <i name="Echarged">      0.00000000 </i>
    <i name="Edipol_quadrupol">      0.00000000 </i>
    <i name="Eion">      0.00000000 </i>
   </dipole>
   <energy>
    <i name="e_fr_energy">    -67.91932255 </i>
    <i name="e_wo_entrp">    -67.83968425 </i>
    <i name="e_0_energy">    -67.87950340 </i>
   </energy>
  </scstep>
  <scstep>
   <time name="diag">    0.04    0.04</time>
   <time name="diis">    0.04    0.04</time>
   <time name="orth">    0.00    0.00</time>
   <time name="total">    0.15    0.15</time>
   <dipole>
    <v name="dipole">      1.16444365      -1.16444365       1.64677200 </v>
    <i name="Tr[quadrupol]">   -423.97378971 </i>
    <i name="Echarged">      0.00000000 </i>
    <i name="Edipol_quadrupol">      0.00000000 </i>
    <i name="Eion">      0.00000000 </i>
   </dipole>
   <energy>
    <i name="e_fr_energy">    -67.91951228 </i>
    <i name="e_wo_entrp">    -67.83984132 </i>
    <i name="e_0_energy">    -67.87967680 </i>
   </energy>
  </scstep>
  <scstep>
   <time name="diag">    0.06    0.09</time>
   <time name="diis">    0.06    0.06</time>
   <time name="orth">    0.00    0.01</time>
   <time name="total">    0.21    0.23</time>
   <dipole>
    <v name="dipole">      1.16418419      -1.16418419       1.64640507 </v>
    <i name="Tr[quadrupol]">   -423.97175575 </i>
    <i name="Echarged">      0.00000000 </i>
    <i name="Edipol_quadrupol">      0.00000000 </i>
    <i name="Eion">      0.00000000 </i>
   </dipole>
   <energy>
    <i name="e_fr_energy">    -67.91968157 </i>
    <i name="e_wo_entrp">    -67.84001642 </i>
    <i name="e_0_energy">    -67.87984900 </i>
   </energy>
  </scstep>
  <scstep>
   <time name="diag">    0.04    0.04</time>
   <time name="diis">    0.03    0.03</time>
   <time name="orth">    0.00    0.00</time>
   <time name="total">    0.15    0.17</time>
   <dipole>
    <v name="dipole">      1.16408126      -1.16408126       1.64625950 </v>
    <i name="Tr[quadrupol]">   -423.97269821 </i>
    <i name="Echarged">      0.00000000 </i>
    <i name="Edipol_quadrupol">      0.00000000 </i>
    <i name="Eion">      0.00000000 </i>
   </dipole>
   <energy>
    <i name="e_fr_energy">    -67.91974875 </i>
    <i name="e_wo_entrp">    -67.84006960 </i>
    <i name="e_0_energy">    -67.87990917 </i>
   </energy>
  </scstep>
  <scstep>
   <time name="diag">    0.04    0.04</time>
   <time name="diis">    0.03    0.03</time>
   <time name="orth">    0.01    0.01</time>
   <time name="total">    0.15    0.15</time>
   <dipole>
    <v name="dipole">      1.16401995      -1.16401995       1.64617280 </v>
    <i name="Tr[quadrupol]">   -423.97328057 </i>
    <i name="Echarged">      0.00000000 </i>
    <i name="Edipol_quadrupol">      0.00000000 </i>
    <i name="Eion">      0.00000000 </i>
   </dipole>
   <energy>
    <i name="e_fr_energy">    -67.91978875 </i>
    <i name="e_wo_entrp">    -67.84008674 </i>
    <i name="e_0_energy">    -67.87993774 </i>
   </energy>
  </scstep>
  <scstep>
   <time name="diag">    0.04    0.04</time>
   <time name="diis">    0.03    0.03</time>
   <time name="orth">    0.01    0.01</time>
   <time name="total">    0.14    0.14</time>
   <dipole>
    <v name="dipole">      1.16397363      -1.16397363       1.64610729 </v>
    <i name="Tr[quadrupol]">   -423.97316834 </i>
    <i name="Echarged">      0.00000000 </i>
    <i name="Edipol_quadrupol">      0.00000000 </i>
    <i name="Eion">      0.00000000 </i>
   </dipole>
   <energy>
    <i name="e_fr_energy">    -67.91981889 </i>
    <i name="e_wo_entrp">    -67.84012660 </i>
    <i name="e_0_energy">    -67.87997275 </i>
   </energy>
  </scstep>
  <scstep>
   <time name="diag">    0.04    0.04</time>
   <time name="diis">    0.03    0.03</time>
   <time name="orth">    0.01    0.01</time>
   <time name="total">    0.14    0.14</time>
   <dipole>
    <v name="dipole">      1.16391843      -1.16391843       1.64602922 </v>
    <i name="Tr[quadrupol]">   -423.97312491 </i>
    <i name="Echarged">      0.00000000 </i>
    <i name="Edipol_quadrupol">      0.00000000 </i>
    <i name="Eion">      0.00000000 </i>
   </dipole>
   <energy>
    <i name="e_fr_energy">    -67.91985482 </i>
    <i name="e_wo_entrp">    -67.84017513 </i>
    <i name="e_0_energy">    -67.88001498 </i>
   </energy>
  </scstep>
  <scstep>
   <time name="diag">    0.04    0.04</time>
   <time name="diis">    0.03    0.03</time>
   <time name="orth">    0.01    0.01</time>
   <time name="total">    0.14    0.14</time>
   <dipole>
    <v name="dipole">      1.16391012      -1.16391012       1.64601748 </v>
    <i name="Tr[quadrupol]">   -423.97316698 </i>
    <i name="Echarged">      0.00000000 </i>
    <i name="Edipol_quadrupol">      0.00000000 </i>
    <i name="Eion">      0.00000000 </i>
   </dipole>
   <energy>
    <i name="e_fr_energy">    -67.91986023 </i>
    <i name="e_wo_entrp">    -67.84018113 </i>
    <i name="e_0_energy">    -67.88002068 </i>
   </energy>
  </scstep>
  <scstep>
   <time name="diag">    0.04    0.04</time>
   <time name="diis">    0.03    0.03</time>
   <time name="orth">    0.00    0.00</time>
   <time name="total">    0.14    0.14</time>
   <dipole>
    <v name="dipole">      1.16390122      -1.16390122       1.64600490 </v>
    <i name="Tr[quadrupol]">   -423.97320759 </i>
    <i name="Echarged">      0.00000000 </i>
    <i name="Edipol_quadrupol">      0.00000000 </i>
    <i name="Eion">      0.00000000 </i>
   </dipole>
   <energy>
    <i name="e_fr_energy">    -67.91986602 </i>
    <i name="e_wo_entrp">    -67.84018896 </i>
    <i name="e_0_energy">    -67.88002749 </i>
   </energy>
  </scstep>
  <scstep>
   <time name="diag">    0.04    0.04</time>
   <time name="diis">    0.03    0.03</time>
   <time name="orth">    0.00    0.00</time>
   <time name="total">    0.14    0.14</time>
   <dipole>
    <v name="dipole">      1.16389454      -1.16389454       1.64599544 </v>
    <i name="Tr[quadrupol]">   -423.97322128 </i>
    <i name="Echarged">      0.00000000 </i>
    <i name="Edipol_quadrupol">      0.00000000 </i>
    <i name="Eion">      0.00000000 </i>
   </dipole>
   <energy>
    <i name="e_fr_energy">    -67.91987037 </i>
    <i name="e_wo_entrp">    -67.84019609 </i>
    <i name="e_0_energy">    -67.88003323 </i>
   </energy>
  </scstep>
  <scstep>
   <time name="diag">    0.04    0.04</time>
   <time name="diis">    0.03    0.03</time>
   <time name="orth">    0.01    0.01</time>
   <time name="total">    0.14    0.14</time>
   <dipole>
    <v name="dipole">      1.16389427      -1.16389427       1.64599506 </v>
    <i name="Tr[quadrupol]">   -423.97323105 </i>
    <i name="Echarged">      0.00000000 </i>
    <i name="Edipol_quadrupol">      0.00000000 </i>
    <i name="Eion">      0.00000000 </i>
   </dipole>
   <energy>
    <i name="e_fr_energy">    -67.91987055 </i>
    <i name="e_wo_entrp">    -67.84019658 </i>
    <i name="e_0_energy">    -67.88003356 </i>
   </energy>
  </scstep>
  <scstep>
   <time name="diag">    0.04    0.04</time>
   <time name="diis">    0.02    0.02</time>
   <time name="orth">    0.00    0.00</time>
   <time name="total">    0.20    0.25</time>
   <dipole>
    <v name="dipole">      1.16389578      -1.16389578       1.64599719 </v>
    <i name="Tr[quadrupol]">   -423.97324920 </i>
    <i name="Echarged">      0.00000000 </i>
    <i name="Edipol_quadrupol">      0.00000000 </i>
    <i name="Eion">      0.00000000 </i>
   </dipole>
   <energy>
    <i name="e_fr_energy">    -67.91986956 </i>
    <i name="e_wo_entrp">    -67.84019486 </i>
    <i name="e_0_energy">    -67.88003221 </i>
   </energy>
  </scstep>
  <scstep>
   <time name="diag">    0.04    0.04</time>
   <time name="diis">    0.02    0.02</time>
   <time name="orth">    0.01    0.01</time>
   <time name="total">    0.13    0.13</time>
   <dipole>
    <v name="dipole">      1.16389667      -1.16389667       1.64599846 </v>
    <i name="Tr[quadrupol]">   -423.97326902 </i>
    <i name="Echarged">      0.00000000 </i>
    <i name="Edipol_quadrupol">      0.00000000 </i>
    <i name="Eion">      0.00000000 </i>
   </dipole>
   <energy>
    <i name="e_fr_energy">    -67.91986898 </i>
    <i name="e_wo_entrp">    -67.84019387 </i>
    <i name="e_0_energy">    -67.88003143 </i>
   </energy>
  </scstep>
  <scstep>
   <time name="diag">    0.04    0.04</time>
   <time name="diis">    0.02    0.02</time>
   <time name="orth">    0.00    0.00</time>
   <time name="total">    0.13    0.13</time>
   <dipole>
    <v name="dipole">      1.16389687      -1.16389687       1.64599873 </v>
    <i name="Tr[quadrupol]">   -423.97327533 </i>
    <i name="Echarged">      0.00000000 </i>
    <i name="Edipol_quadrupol">      0.00000000 </i>
    <i name="Eion">      0.00000000 </i>
   </dipole>
   <energy>
    <i name="e_fr_energy">    -67.91986886 </i>
    <i name="e_wo_entrp">    -67.84019368 </i>
    <i name="e_0_energy">    -67.88003127 </i>
   </energy>
  </scstep>
  <scstep>
   <time name="diag">    0.04    0.04</time>
   <time name="diis">    0.02    0.02</time>
   <time name="orth">    0.01    0.01</time>
   <time name="total">    0.13    0.13</time>
   <dipole>
    <v name="dipole">      1.16389667      -1.16389667       1.64599845 </v>
    <i name="Tr[quadrupol]">   -423.97327877 </i>
    <i name="Echarged">      0.00000000 </i>
    <i name="Edipol_quadrupol">      0.00000000 </i>
    <i name="Eion">      0.00000000 </i>
   </dipole>
   <energy>
    <i name="e_fr_energy">    -67.91986899 </i>
    <i name="e_wo_entrp">    -67.84019393 </i>
    <i name="e_0_energy">    -67.88003146 </i>
   </energy>
  </scstep>
  <scstep>
   <time name="diag">    0.04    0.04</time>
   <time name="diis">    0.02    0.02</time>
   <time name="orth">    0.00    0.00</time>
   <time name="total">    0.14    0.14</time>
   <dipole>
    <v name="dipole">      1.16389673      -1.16389673       1.64599855 </v>
    <i name="Tr[quadrupol]">   -423.97328051 </i>
    <i name="Echarged">      0.00000000 </i>
    <i name="Edipol_quadrupol">      0.00000000 </i>
    <i name="Eion">      0.00000000 </i>
   </dipole>
   <energy>
    <i name="e_fr_energy">    -67.91986894 </i>
    <i name="e_wo_entrp">    -67.84019380 </i>
    <i name="e_0_energy">    -67.88003137 </i>
   </energy>
  </scstep>
  <scstep>
   <time name="diag">    0.04    0.04</time>
   <time name="diis">    0.02    0.02</time>
   <time name="orth">    0.01    0.01</time>
   <time name="total">    0.13    0.13</time>
   <dipole>
    <v name="dipole">      1.16389667      -1.16389667       1.64599846 </v>
    <i name="Tr[quadrupol]">   -423.97328238 </i>
    <i name="Echarged">      0.00000000 </i>
    <i name="Edipol_quadrupol">      0.00000000 </i>
    <i name="Eion">      0.00000000 </i>
   </dipole>
   <energy>
    <i name="e_fr_energy">    -67.91986898 </i>
    <i name="e_wo_entrp">    -67.84019383 </i>
    <i name="e_0_energy">    -67.88003140 </i>
   </energy>
  </scstep>
  <scstep>
   <time name="diag">    0.04    0.04</time>
   <time name="diis">    0.02    0.02</time>
   <time name="orth">    0.01    0.01</time>
   <time name="total">    0.13    0.13</time>
   <dipole>
    <v name="dipole">      1.16389671      -1.16389671       1.64599852 </v>
    <i name="Tr[quadrupol]">   -423.97328356 </i>
    <i name="Echarged">      0.00000000 </i>
    <i name="Edipol_quadrupol">      0.00000000 </i>
    <i name="Eion">      0.00000000 </i>
   </dipole>
   <energy>
    <i name="e_fr_energy">    -67.91986895 </i>
    <i name="e_wo_entrp">    -67.84019378 </i>
    <i name="e_0_energy">    -67.88003137 </i>
   </energy>
  </scstep>
  <scstep>
   <time name="diag">    0.04    0.04</time>
   <time name="diis">    0.02    0.02</time>
   <time name="orth">    0.01    0.01</time>
   <time name="total">    0.13    0.13</time>
   <dipole>
    <v name="dipole">      1.16389670      -1.16389670       1.64599849 </v>
    <i name="Tr[quadrupol]">   -423.97328409 </i>
    <i name="Echarged">      0.00000000 </i>
    <i name="Edipol_quadrupol">      0.00000000 </i>
    <i name="Eion">      0.00000000 </i>
   </dipole>
   <energy>
    <i name="e_fr_energy">    -67.91986897 </i>
    <i name="e_wo_entrp">    -67.84019378 </i>
    <i name="e_0_energy">    -67.88003137 </i>
   </energy>
  </scstep>
  <scstep>
   <time name="diag">    0.04    0.04</time>
   <time name="diis">    0.02    0.02</time>
   <time name="orth">    0.01    0.01</time>
   <time name="total">    0.13    0.13</time>
   <dipole>
    <v name="dipole">      1.16389671      -1.16389671       1.64599851 </v>
    <i name="Tr[quadrupol]">   -423.97328445 </i>
    <i name="Echarged">      0.00000000 </i>
    <i name="Edipol_quadrupol">      0.00000000 </i>
    <i name="Eion">      0.00000000 </i>
   </dipole>
   <energy>
    <i name="e_fr_energy">    -67.91986896 </i>
    <i name="e_wo_entrp">    -67.84019376 </i>
    <i name="e_0_energy">    -67.88003136 </i>
   </energy>
  </scstep>
  <scstep>
   <time name="diag">    0.04    0.04</time>
   <time name="diis">    0.02    0.02</time>
   <time name="orth">    0.01    0.01</time>
   <time name="total">    0.12    0.12</time>
   <dipole>
    <v name="dipole">      1.16389673      -1.16389673       1.64599854 </v>
    <i name="Tr[quadrupol]">   -423.97328461 </i>
    <i name="Echarged">      0.00000000 </i>
    <i name="Edipol_quadrupol">      0.00000000 </i>
    <i name="Eion">      0.00000000 </i>
   </dipole>
   <energy>
    <i name="alphaZ">     -0.26113622 </i>
    <i name="ewald">   3205.49694447 </i>
    <i name="hartreedc">  -6496.02741117 </i>
    <i name="XCdc">   -237.83804013 </i>
    <i name="pawpsdc">   4140.83979657 </i>
    <i name="pawaedc">  -3699.88997584 </i>
    <i name="eentropy">     -0.07967522 </i>
    <i name="bandstr">   -409.97761129 </i>
    <i name="atom">   3429.81723989 </i>
    <i name="e_fr_energy">    -67.91986895 </i>
    <i name="e_wo_entrp">    -67.84019373 </i>
    <i name="e_0_energy">    -67.88003134 </i>
   </energy>
  </scstep>
  <structure>
   <crystal>
    <varray name="basis" >
     <v>      -3.15184252      -3.15184252       0.00000000 </v>
     <v>       4.45737844      -4.45737844       0.00000000 </v>
     <v>      16.28569382     -16.28569382      23.03144907 </v>
    </varray>
    <i name="volume">    647.13558004 </i>
    <varray name="rec_basis" >
     <v>      -0.15863737      -0.15863737       0.00000000 </v>
     <v>       0.11217356      -0.11217356      -0.15863737 </v>
     <v>       0.00000000       0.00000000       0.04341889 </v>
    </varray>
   </crystal>
   <varray name="positions" >
    <v>       0.50000017       0.49999983       0.26051335 </v>
    <v>       0.00000010       0.49999983       0.32893812 </v>
    <v>       0.50000017       0.99999990       0.26051335 </v>
    <v>       0.50000017       0.49999983       0.39736286 </v>
    <v>       0.00000010       0.49999983       0.46578763 </v>
    <v>       0.50000017       0.00000010       0.39736286 </v>
    <v>       0.50000017       0.49999983       0.53421237 </v>
    <v>       0.00000010       0.49999983       0.60263714 </v>
    <v>       0.50000017       0.99999990       0.53421237 </v>
    <v>       0.50000017       0.49999983       0.67106188 </v>
    <v>       0.00000010       0.49999983       0.73948665 </v>
    <v>       0.50000017       0.00000010       0.67106188 </v>
    <v>       0.50000017       0.49999983       0.32893812 </v>
    <v>       0.50000017       0.49999983       0.46578763 </v>
    <v>       0.50000017       0.49999983       0.60263714 </v>
    <v>       0.50000017       0.49999983       0.73948665 </v>
    <v>       0.00000010       0.99999990       0.32893810 </v>
    <v>       0.00000010       0.00000010       0.46578761 </v>
    <v>       0.00000010       0.99999990       0.60263712 </v>
    <v>       0.00000010       0.99999990       0.73948663 </v>
   </varray>
  </structure>
  <varray name="forces" >
   <v>       0.01828832      -0.01828832       0.03233321 </v>
   <v>       0.00069718      -0.00069718       0.36245950 </v>
   <v>      -0.01137874       0.01137874       0.02888668 </v>
   <v>       0.00566859      -0.00566859       0.29880880 </v>
   <v>      -0.00035269       0.00035269       0.27925967 </v>
   <v>      -0.00406561       0.00406561       0.29372177 </v>
   <v>      -0.01601030       0.01601030       0.26124291 </v>
   <v>       0.00141299      -0.00141299       0.49441862 </v>
   <v>       0.01594357      -0.01594357       0.26045234 </v>
   <v>      -0.33900543       0.33900543       0.57487446 </v>
   <v>      -0.00176844       0.00176844       0.82847795 </v>
   <v>       0.33193901      -0.33193901       0.57982129 </v>
   <v>       0.00249376      -0.00249376      -0.66643821 </v>
   <v>       0.00028817      -0.00028817      -0.46291103 </v>
   <v>      -0.00207034       0.00207034      -0.69201838 </v>
   <v>      -0.00214290       0.00214290      -0.72706507 </v>
   <v>      -0.00020691       0.00020691      -0.26769136 </v>
   <v>       0.00015603      -0.00015603      -0.35992202 </v>
   <v>      -0.00027837       0.00027837      -0.28638475 </v>
   <v>       0.00039211      -0.00039211      -0.83232639 </v>
  </varray>
  <varray name="stress" >
   <v>      -1.31065581      -1.47643165       0.03599993 </v>
   <v>      -1.47643165      -1.31065581      -0.03599993 </v>
   <v>       0.03599988      -0.03599988      -5.27586583 </v>
  </varray>
  <energy>
   <i name="e_fr_energy">    -67.91986895 </i>
   <i name="e_wo_entrp">    -67.84019373 </i>
   <i name="e_0_energy">    -67.88003134 </i>
  </energy>
  <time name="totalsc">    9.14    9.55</time>
  <eigenvalues>
   <array>
    <dimension dim="1">band</dimension>
    <dimension dim="2">kpoint</dimension>
    <dimension dim="3">spin</dimension>
    <field>eigene</field>
    <field>occ</field>
    <set>
     <set comment="spin 1">
      <set comment="kpoint 1">
       <r>  -17.5656    1.0000 </r>
       <r>  -17.3926    1.0000 </r>
       <r>  -16.6604    1.0000 </r>
       <r>  -16.3522    1.0000 </r>
       <r>  -15.8291    1.0000 </r>
       <r>  -15.5101    1.0000 </r>
       <r>  -15.4522    1.0000 </r>
       <r>  -13.6233    1.0000 </r>
       <r>   -6.1058    1.0000 </r>
       <r>   -6.0177    1.0000 </r>
       <r>   -5.7055    1.0000 </r>
       <r>   -5.2236    1.0000 </r>
       <r>   -5.2210    1.0000 </r>
       <r>   -4.8320    1.0000 </r>
       <r>   -4.3816    1.0000 </r>
       <r>   -4.3525    1.0000 </r>
       <r>   -4.0105    1.0000 </r>
       <r>   -3.4936    1.0000 </r>
       <r>   -3.1931    1.0000 </r>
       <r>   -3.0939    1.0000 </r>
       <r>   -2.3440    1.0000 </r>
       <r>   -2.3059    1.0000 </r>
       <r>   -2.1835    1.0000 </r>
       <r>   -2.1089    1.0000 </r>
       <r>   -1.9992    1.0000 </r>
       <r>   -1.7239    1.0000 </r>
       <r>   -1.6458    1.0000 </r>
       <r>   -1.2208    1.0000 </r>
       <r>   -1.2154    1.0000 </r>
       <r>   -1.0764    0.9983 </r>
       <r>   -0.9785    0.9394 </r>
       <r>   -0.9008    0.6740 </r>
       <r>   -0.8065    0.1888 </r>
       <r>    0.6323    0.0000 </r>
       <r>    1.2840    0.0000 </r>
       <r>    1.6413    0.0000 </r>
       <r>    1.8631    0.0000 </r>
       <r>    2.7007    0.0000 </r>
       <r>    2.8927    0.0000 </r>
       <r>    3.3347    0.0000 </r>
       <r>    3.6847    0.0000 </r>
       <r>    3.8787    0.0000 </r>
       <r>    4.1110    0.0000 </r>
       <r>    4.4724    0.0000 </r>
       <r>    4.6525    0.0000 </r>
       <r>    4.9807    0.0000 </r>
       <r>    6.2268    0.0000 </r>
       <r>    6.4793    0.0000 </r>
      </set>
      <set comment="kpoint 2">
       <r>  -17.4902    1.0000 </r>
       <r>  -17.4014    1.0000 </r>
       <r>  -16.6158    1.0000 </r>
       <r>  -16.3333    1.0000 </r>
       <r>  -15.7855    1.0000 </r>
       <r>  -15.4859    1.0000 </r>
       <r>  -15.4257    1.0000 </r>
       <r>  -13.6024    1.0000 </r>
       <r>   -6.2089    1.0000 </r>
       <r>   -5.9613    1.0000 </r>
       <r>   -5.9035    1.0000 </r>
       <r>   -5.3114    1.0000 </r>
       <r>   -5.1621    1.0000 </r>
       <r>   -5.1000    1.0000 </r>
       <r>   -4.4886    1.0000 </r>
       <r>   -4.3226    1.0000 </r>
       <r>   -4.2350    1.0000 </r>
       <r>   -3.5667    1.0000 </r>
       <r>   -3.4104    1.0000 </r>
       <r>   -3.3672    1.0000 </r>
       <r>   -2.4170    1.0000 </r>
       <r>   -2.2711    1.0000 </r>
       <r>   -2.2534    1.0000 </r>
       <r>   -2.1736    1.0000 </r>
       <r>   -2.1672    1.0000 </r>
       <r>   -2.1008    1.0000 </r>
       <r>   -1.3908    1.0000 </r>
       <r>   -1.3893    1.0000 </r>
       <r>   -1.2899    1.0000 </r>
       <r>   -1.2223    1.0000 </r>
       <r>   -0.9770    0.9367 </r>
       <r>   -0.9498    0.8737 </r>
       <r>   -0.8354    0.3178 </r>
       <r>    1.1712    0.0000 </r>
       <r>    1.9544    0.0000 </r>
       <r>    2.4470    0.0000 </r>
       <r>    2.5895    0.0000 </r>
       <r>    2.6918    0.0000 </r>
       <r>    3.5279    0.0000 </r>
       <r>    3.8811    0.0000 </r>
       <r>    4.0610    0.0000 </r>
       <r>    4.0640    0.0000 </r>
       <r>    4.5648    0.0000 </r>
       <r>    5.0028    0.0000 </r>
       <r>    5.0333    0.0000 </r>
       <r>    5.6760    0.0000 </r>
       <r>    5.7811    0.0000 </r>
       <r>    6.2485    0.0000 </r>
      </set>
      <set comment="kpoint 3">
       <r>  -17.5243    1.0000 </r>
       <r>  -17.4338    1.0000 </r>
       <r>  -16.6421    1.0000 </r>
       <r>  -16.3710    1.0000 </r>
       <r>  -15.8143    1.0000 </r>
       <r>  -15.5067    1.0000 </r>
       <r>  -15.4700    1.0000 </r>
       <r>  -13.6250    1.0000 </r>
       <r>   -6.0838    1.0000 </r>
       <r>   -6.0028    1.0000 </r>
       <r>   -5.6950    1.0000 </r>
       <r>   -5.2176    1.0000 </r>
       <r>   -5.1990    1.0000 </r>
       <r>   -4.8243    1.0000 </r>
       <r>   -4.3710    1.0000 </r>
       <r>   -4.3264    1.0000 </r>
       <r>   -4.0037    1.0000 </r>
       <r>   -3.5124    1.0000 </r>
       <r>   -3.4299    1.0000 </r>
       <r>   -3.1242    1.0000 </r>
       <r>   -2.3450    1.0000 </r>
       <r>   -2.3173    1.0000 </r>
       <r>   -2.2113    1.0000 </r>
       <r>   -2.1555    1.0000 </r>
       <r>   -2.0289    1.0000 </r>
       <r>   -1.6940    1.0000 </r>
       <r>   -1.4397    1.0000 </r>
       <r>   -1.2504    1.0000 </r>
       <r>   -1.1896    1.0000 </r>
       <r>   -1.0928    0.9992 </r>
       <r>   -0.9894    0.9558 </r>
       <r>   -0.9588    0.8981 </r>
       <r>   -0.9583    0.8967 </r>
       <r>   -0.1203    0.0000 </r>
       <r>    1.2967    0.0000 </r>
       <r>    2.1268    0.0000 </r>
       <r>    2.5582    0.0000 </r>
       <r>    3.0220    0.0000 </r>
       <r>    3.3960    0.0000 </r>
       <r>    3.5808    0.0000 </r>
       <r>    3.7211    0.0000 </r>
       <r>    4.0960    0.0000 </r>
       <r>    4.3565    0.0000 </r>
       <r>    4.5655    0.0000 </r>
       <r>    4.7948    0.0000 </r>
       <r>    5.1373    0.0000 </r>
       <r>    5.8733    0.0000 </r>
       <r>    6.9242    0.0000 </r>
      </set>
      <set comment="kpoint 4">
       <r>  -17.4693    1.0000 </r>
       <r>  -17.4205    1.0000 </r>
       <r>  -16.6099    1.0000 </r>
       <r>  -16.3381    1.0000 </r>
       <r>  -15.7807    1.0000 </r>
       <r>  -15.4795    1.0000 </r>
       <r>  -15.4363    1.0000 </r>
       <r>  -13.6017    1.0000 </r>
       <r>   -6.2495    1.0000 </r>
       <r>   -6.0472    1.0000 </r>
       <r>   -5.9111    1.0000 </r>
       <r>   -5.3523    1.0000 </r>
       <r>   -5.1522    1.0000 </r>
       <r>   -5.1395    1.0000 </r>
       <r>   -4.5286    1.0000 </r>
       <r>   -4.2967    1.0000 </r>
       <r>   -4.2809    1.0000 </r>
       <r>   -3.4750    1.0000 </r>
       <r>   -3.3921    1.0000 </r>
       <r>   -3.2818    1.0000 </r>
       <r>   -2.3548    1.0000 </r>
       <r>   -2.2990    1.0000 </r>
       <r>   -2.2318    1.0000 </r>
       <r>   -2.2179    1.0000 </r>
       <r>   -2.1758    1.0000 </r>
       <r>   -2.0740    1.0000 </r>
       <r>   -1.3709    1.0000 </r>
       <r>   -1.2956    1.0000 </r>
       <r>   -1.2074    1.0000 </r>
       <r>   -1.1477    1.0000 </r>
       <r>   -0.9649    0.9125 </r>
       <r>   -0.9057    0.6984 </r>
       <r>   -0.4866    0.0000 </r>
       <r>    0.5561    0.0000 </r>
       <r>    1.7458    0.0000 </r>
       <r>    2.2612    0.0000 </r>
       <r>    2.6176    0.0000 </r>
       <r>    3.1501    0.0000 </r>
       <r>    3.4133    0.0000 </r>
       <r>    3.7540    0.0000 </r>
       <r>    3.8559    0.0000 </r>
       <r>    4.4050    0.0000 </r>
       <r>    4.5883    0.0000 </r>
       <r>    5.0682    0.0000 </r>
       <r>    5.1873    0.0000 </r>
       <r>    5.5366    0.0000 </r>
       <r>    5.8043    0.0000 </r>
       <r>    6.1266    0.0000 </r>
      </set>
     </set>
    </set>
   </array>
  </eigenvalues>
  <separator name="orbital magnetization" >
   <v name="MAGDIPOLOUT">      0.00000000      0.00000000      0.00000000</v>
  </separator>
  <dos>
   <i name="efermi">     -0.86894461 </i>
   <total>
    <array>
     <dimension dim="1">gridpoints</dimension>
     <dimension dim="2">spin</dimension>
     <field>energy</field>
     <field>total</field>
     <field>integrated</field>
     <set>
      <set comment="spin 1">
       <r>   -18.7901     0.0000     0.0000 </r>
       <r>   -18.7003     0.0000     0.0000 </r>
       <r>   -18.6105     0.0000     0.0000 </r>
       <r>   -18.5207     0.0000     0.0000 </r>
       <r>   -18.4309     0.0000     0.0000 </r>
       <r>   -18.3411     0.0000     0.0000 </r>
       <r>   -18.2514     0.0000     0.0000 </r>
       <r>   -18.1616     0.0000     0.0000 </r>
       <r>   -18.0718     0.0000     0.0000 </r>
       <r>   -17.9820     0.0000     0.0000 </r>
       <r>   -17.8922     0.0000     0.0000 </r>
       <r>   -17.8024     0.0012     0.0001 </r>
       <r>   -17.7126     0.0719     0.0066 </r>
       <r>   -17.6228     1.1937     0.1138 </r>
       <r>   -17.5330     6.9743     0.7400 </r>
       <r>   -17.4432    16.4051     2.2131 </r>
       <r>   -17.3534    14.9505     3.5556 </r>
       <r>   -17.2636     4.5447     3.9637 </r>
       <r>   -17.1738     0.3951     3.9992 </r>
       <r>   -17.0840     0.0087     4.0000 </r>
       <r>   -16.9942     0.0001     4.0000 </r>
       <r>   -16.9044     0.0015     4.0001 </r>
       <r>   -16.8146     0.1019     4.0093 </r>
       <r>   -16.7248     1.7639     4.1677 </r>
       <r>   -16.6350     7.9097     4.8779 </r>
       <r>   -16.5452     9.4396     5.7256 </r>
       <r>   -16.4554     4.2720     6.1092 </r>
       <r>   -16.3656     7.5065     6.7832 </r>
       <r>   -16.2758     9.8573     7.6684 </r>
       <r>   -16.1860     3.3992     7.9736 </r>
       <r>   -16.0962     0.2884     7.9995 </r>
       <r>   -16.0064     0.0479     8.0038 </r>
       <r>   -15.9167     1.0164     8.0951 </r>
       <r>   -15.8269     6.2586     8.6571 </r>
       <r>   -15.7371    10.1616     9.5696 </r>
       <r>   -15.6473     4.6970     9.9913 </r>
       <r>   -15.5575     5.2716    10.4647 </r>
       <r>   -15.4677    16.9003    11.9823 </r>
       <r>   -15.3779    17.0675    13.5149 </r>
       <r>   -15.2881     4.9925    13.9632 </r>
       <r>   -15.1983     0.4017    13.9993 </r>
       <r>   -15.1085     0.0082    14.0000 </r>
       <r>   -15.0187     0.0000    14.0000 </r>
       <r>   -14.9289     0.0000    14.0000 </r>
       <r>   -14.8391     0.0000    14.0000 </r>
       <r>   -14.7493     0.0000    14.0000 </r>
       <r>   -14.6595     0.0000    14.0000 </r>
       <r>   -14.5697     0.0000    14.0000 </r>
       <r>   -14.4799     0.0000    14.0000 </r>
       <r>   -14.3901     0.0000    14.0000 </r>
       <r>   -14.3003     0.0000    14.0000 </r>
       <r>   -14.2105     0.0000    14.0000 </r>
       <r>   -14.1207     0.0000    14.0000 </r>
       <r>   -14.0309     0.0000    14.0000 </r>
       <r>   -13.9411     0.0000    14.0000 </r>
       <r>   -13.8513     0.0080    14.0007 </r>
       <r>   -13.7615     0.3654    14.0335 </r>
       <r>   -13.6717     3.8996    14.3837 </r>
       <r>   -13.5820    10.1963    15.2993 </r>
       <r>   -13.4922     6.6812    15.8992 </r>
       <r>   -13.4024     1.0804    15.9963 </r>
       <r>   -13.3126     0.0412    16.0000 </r>
       <r>   -13.2228     0.0004    16.0000 </r>
       <r>   -13.1330     0.0000    16.0000 </r>
       <r>   -13.0432     0.0000    16.0000 </r>
       <r>   -12.9534     0.0000    16.0000 </r>
       <r>   -12.8636     0.0000    16.0000 </r>
       <r>   -12.7738     0.0000    16.0000 </r>
       <r>   -12.6840     0.0000    16.0000 </r>
       <r>   -12.5942     0.0000    16.0000 </r>
       <r>   -12.5044     0.0000    16.0000 </r>
       <r>   -12.4146     0.0000    16.0000 </r>
       <r>   -12.3248     0.0000    16.0000 </r>
       <r>   -12.2350     0.0000    16.0000 </r>
       <r>   -12.1452     0.0000    16.0000 </r>
       <r>   -12.0554     0.0000    16.0000 </r>
       <r>   -11.9656     0.0000    16.0000 </r>
       <r>   -11.8758     0.0000    16.0000 </r>
       <r>   -11.7860     0.0000    16.0000 </r>
       <r>   -11.6962     0.0000    16.0000 </r>
       <r>   -11.6064     0.0000    16.0000 </r>
       <r>   -11.5166     0.0000    16.0000 </r>
       <r>   -11.4268     0.0000    16.0000 </r>
       <r>   -11.3370     0.0000    16.0000 </r>
       <r>   -11.2473     0.0000    16.0000 </r>
       <r>   -11.1575     0.0000    16.0000 </r>
       <r>   -11.0677     0.0000    16.0000 </r>
       <r>   -10.9779     0.0000    16.0000 </r>
       <r>   -10.8881     0.0000    16.0000 </r>
       <r>   -10.7983     0.0000    16.0000 </r>
       <r>   -10.7085     0.0000    16.0000 </r>
       <r>   -10.6187     0.0000    16.0000 </r>
       <r>   -10.5289     0.0000    16.0000 </r>
       <r>   -10.4391     0.0000    16.0000 </r>
       <r>   -10.3493     0.0000    16.0000 </r>
       <r>   -10.2595     0.0000    16.0000 </r>
       <r>   -10.1697     0.0000    16.0000 </r>
       <r>   -10.0799     0.0000    16.0000 </r>
       <r>    -9.9901     0.0000    16.0000 </r>
       <r>    -9.9003     0.0000    16.0000 </r>
       <r>    -9.8105     0.0000    16.0000 </r>
       <r>    -9.7207     0.0000    16.0000 </r>
       <r>    -9.6309     0.0000    16.0000 </r>
       <r>    -9.5411     0.0000    16.0000 </r>
       <r>    -9.4513     0.0000    16.0000 </r>
       <r>    -9.3615     0.0000    16.0000 </r>
       <r>    -9.2717     0.0000    16.0000 </r>
       <r>    -9.1819     0.0000    16.0000 </r>
       <r>    -9.0921     0.0000    16.0000 </r>
       <r>    -9.0023     0.0000    16.0000 </r>
       <r>    -8.9126     0.0000    16.0000 </r>
       <r>    -8.8228     0.0000    16.0000 </r>
       <r>    -8.7330     0.0000    16.0000 </r>
       <r>    -8.6432     0.0000    16.0000 </r>
       <r>    -8.5534     0.0000    16.0000 </r>
       <r>    -8.4636     0.0000    16.0000 </r>
       <r>    -8.3738     0.0000    16.0000 </r>
       <r>    -8.2840     0.0000    16.0000 </r>
       <r>    -8.1942     0.0000    16.0000 </r>
       <r>    -8.1044     0.0000    16.0000 </r>
       <r>    -8.0146     0.0000    16.0000 </r>
       <r>    -7.9248     0.0000    16.0000 </r>
       <r>    -7.8350     0.0000    16.0000 </r>
       <r>    -7.7452     0.0000    16.0000 </r>
       <r>    -7.6554     0.0000    16.0000 </r>
       <r>    -7.5656     0.0000    16.0000 </r>
       <r>    -7.4758     0.0000    16.0000 </r>
       <r>    -7.3860     0.0000    16.0000 </r>
       <r>    -7.2962     0.0000    16.0000 </r>
       <r>    -7.2064     0.0000    16.0000 </r>
       <r>    -7.1166     0.0000    16.0000 </r>
       <r>    -7.0268     0.0000    16.0000 </r>
       <r>    -6.9370     0.0000    16.0000 </r>
       <r>    -6.8472     0.0000    16.0000 </r>
       <r>    -6.7574     0.0000    16.0000 </r>
       <r>    -6.6676     0.0000    16.0000 </r>
       <r>    -6.5779     0.0000    16.0000 </r>
       <r>    -6.4881     0.0038    16.0003 </r>
       <r>    -6.3983     0.1897    16.0174 </r>
       <r>    -6.3085     2.2115    16.2160 </r>
       <r>    -6.2187     6.7797    16.8248 </r>
       <r>    -6.1289     8.4185    17.5807 </r>
       <r>    -6.0391    11.8844    18.6479 </r>
       <r>    -5.9493    14.5909    19.9581 </r>
       <r>    -5.8595    11.2242    20.9660 </r>
       <r>    -5.7697     4.8706    21.4033 </r>
       <r>    -5.6799     3.6910    21.7348 </r>
       <r>    -5.5901     2.4889    21.9583 </r>
       <r>    -5.5003     0.6444    22.0161 </r>
       <r>    -5.4105     2.2947    22.2222 </r>
       <r>    -5.3207     7.5745    22.9024 </r>
       <r>    -5.2309    12.9555    24.0657 </r>
       <r>    -5.1411    19.1680    25.7869 </r>
       <r>    -5.0513    13.7329    27.0201 </r>
       <r>    -4.9615     3.4690    27.3316 </r>
       <r>    -4.8717     1.9703    27.5085 </r>
       <r>    -4.7819     3.5251    27.8251 </r>
       <r>    -4.6921     1.8491    27.9911 </r>
       <r>    -4.6023     1.8353    28.1559 </r>
       <r>    -4.5125     6.1961    28.7123 </r>
       <r>    -4.4227     9.0460    29.5246 </r>
       <r>    -4.3329    14.8179    30.8552 </r>
       <r>    -4.2432    18.1106    32.4814 </r>
       <r>    -4.1534     8.3576    33.2319 </r>
       <r>    -4.0636     2.6188    33.4671 </r>
       <r>    -3.9738     3.5247    33.7836 </r>
       <r>    -3.8840     2.0954    33.9717 </r>
       <r>    -3.7942     0.3078    33.9994 </r>
       <r>    -3.7044     0.1605    34.0138 </r>
       <r>    -3.6146     1.8354    34.1786 </r>
       <r>    -3.5248     7.9921    34.8963 </r>
       <r>    -3.4350    15.9371    36.3274 </r>
       <r>    -3.3452    16.7167    37.8285 </r>
       <r>    -3.2554    10.7658    38.7952 </r>
       <r>    -3.1656     6.3785    39.3679 </r>
       <r>    -3.0758     4.6905    39.7891 </r>
       <r>    -2.9860     2.0611    39.9742 </r>
       <r>    -2.8962     0.2776    39.9991 </r>
       <r>    -2.8064     0.0095    40.0000 </r>
       <r>    -2.7166     0.0001    40.0000 </r>
       <r>    -2.6268     0.0083    40.0007 </r>
       <r>    -2.5370     0.2971    40.0274 </r>
       <r>    -2.4472     3.3057    40.3243 </r>
       <r>    -2.3574    14.0678    41.5875 </r>
       <r>    -2.2676    28.1453    44.1148 </r>
       <r>    -2.1778    34.3198    47.1966 </r>
       <r>    -2.0880    26.9384    49.6156 </r>
       <r>    -1.9982    14.1166    50.8832 </r>
       <r>    -1.9085     4.4448    51.2823 </r>
       <r>    -1.8187     0.9792    51.3703 </r>
       <r>    -1.7289     2.5922    51.6030 </r>
       <r>    -1.6391     4.3989    51.9980 </r>
       <r>    -1.5493     2.6463    52.2357 </r>
       <r>    -1.4595     4.5782    52.6468 </r>
       <r>    -1.3697    13.1568    53.8282 </r>
       <r>    -1.2799    19.7982    55.6060 </r>
       <r>    -1.1901    23.0003    57.6713 </r>
       <r>    -1.1003    18.6753    59.3483 </r>
       <r>    -1.0105    16.8563    60.8619 </r>
       <r>    -0.9207    23.5852    62.9798 </r>
       <r>    -0.8309    16.9073    64.4980 </r>
       <r>    -0.7411     5.7812    65.0171 </r>
       <r>    -0.6513     1.0847    65.1145 </r>
       <r>    -0.5615     1.3924    65.2396 </r>
       <r>    -0.4717     4.3425    65.6295 </r>
       <r>    -0.3819     3.4391    65.9383 </r>
       <r>    -0.2921     0.6948    66.0007 </r>
       <r>    -0.2023     0.6014    66.0547 </r>
       <r>    -0.1125     2.0834    66.2418 </r>
       <r>    -0.0227     1.8425    66.4072 </r>
       <r>     0.0671     0.3945    66.4427 </r>
       <r>     0.1569     0.0197    66.4444 </r>
       <r>     0.2467     0.0003    66.4444 </r>
       <r>     0.3365     0.0094    66.4453 </r>
       <r>     0.4262     0.3234    66.4743 </r>
       <r>     0.5160     2.6187    66.7095 </r>
       <r>     0.6058     5.4399    67.1980 </r>
       <r>     0.6956     3.2840    67.4929 </r>
       <r>     0.7854     0.6548    67.5517 </r>
       <r>     0.8752     0.0427    67.5555 </r>
       <r>     0.9650     0.0095    67.5563 </r>
       <r>     1.0548     0.2410    67.5780 </r>
       <r>     1.1446     1.6372    67.7250 </r>
       <r>     1.2344     3.6771    68.0552 </r>
       <r>     1.3242     4.3036    68.4416 </r>
       <r>     1.4140     2.1842    68.6378 </r>
       <r>     1.5038     0.3783    68.6717 </r>
       <r>     1.5936     0.7172    68.7361 </r>
       <r>     1.6834     2.9009    68.9966 </r>
       <r>     1.7732     5.4431    69.4854 </r>
       <r>     1.8630     4.4927    69.8888 </r>
       <r>     1.9528     3.4311    70.1969 </r>
       <r>     2.0426     2.8047    70.4488 </r>
       <r>     2.1324     2.8917    70.7084 </r>
       <r>     2.2222     4.4509    71.1081 </r>
       <r>     2.3120     5.2380    71.5784 </r>
       <r>     2.4018     3.3793    71.8819 </r>
       <r>     2.4916     4.1295    72.2527 </r>
       <r>     2.5814     8.2937    72.9974 </r>
       <r>     2.6712    10.7977    73.9670 </r>
       <r>     2.7609     6.3098    74.5336 </r>
       <r>     2.8507     2.0958    74.7218 </r>
       <r>     2.9405     1.8740    74.8901 </r>
       <r>     3.0303     3.0779    75.1665 </r>
       <r>     3.1201     4.7769    75.5954 </r>
       <r>     3.2099     5.1312    76.0562 </r>
       <r>     3.2997     3.4161    76.3629 </r>
       <r>     3.3895     6.4459    76.9418 </r>
       <r>     3.4793     8.5347    77.7081 </r>
       <r>     3.5691     6.5665    78.2978 </r>
       <r>     3.6589     6.0206    78.8384 </r>
       <r>     3.7487     8.8146    79.6299 </r>
       <r>     3.8385    11.2249    80.6379 </r>
       <r>     3.9283     9.6003    81.4999 </r>
       <r>     4.0181     6.3226    82.0677 </r>
       <r>     4.1079     8.0860    82.7938 </r>
       <r>     4.1977     5.1648    83.2576 </r>
       <r>     4.2875     2.1074    83.4468 </r>
       <r>     4.3773     5.4956    83.9403 </r>
       <r>     4.4671     8.3357    84.6888 </r>
       <r>     4.5569     9.7290    85.5624 </r>
       <r>     4.6467    10.2643    86.4841 </r>
       <r>     4.7365     4.9749    86.9308 </r>
       <r>     4.8263     2.9130    87.1924 </r>
       <r>     4.9161     2.7469    87.4391 </r>
       <r>     5.0059     6.7625    88.0463 </r>
       <r>     5.0956    11.6895    89.0960 </r>
       <r>     5.1854    10.6251    90.0501 </r>
       <r>     5.2752     5.6657    90.5589 </r>
       <r>     5.3650     1.2138    90.6678 </r>
       <r>     5.4548     1.2154    90.7770 </r>
       <r>     5.5446     4.3274    91.1656 </r>
       <r>     5.6344     5.0716    91.6210 </r>
       <r>     5.7242     5.3561    92.1019 </r>
       <r>     5.8140     8.5808    92.8725 </r>
       <r>     5.9038     7.4430    93.5408 </r>
       <r>     5.9936     2.6737    93.7809 </r>
       <r>     6.0834     2.7353    94.0265 </r>
       <r>     6.1732     5.8674    94.5534 </r>
       <r>     6.2630     5.5949    95.0558 </r>
       <r>     6.3528     2.7348    95.3014 </r>
       <r>     6.4426     1.0844    95.3988 </r>
       <r>     6.5324     1.1853    95.5052 </r>
       <r>     6.6222     0.5072    95.5507 </r>
       <r>     6.7120     0.0590    95.5560 </r>
       <r>     6.8018     0.2008    95.5741 </r>
       <r>     6.8916     1.3881    95.6987 </r>
       <r>     6.9814     2.3182    95.9069 </r>
       <r>     7.0712     0.9437    95.9916 </r>
       <r>     7.1610     0.0913    95.9998 </r>
       <r>     7.2508     0.0020    96.0000 </r>
       <r>     7.3406     0.0000    96.0000 </r>
       <r>     7.4303     0.0000    96.0000 </r>
       <r>     7.5201     0.0000    96.0000 </r>
       <r>     7.6099     0.0000    96.0000 </r>
       <r>     7.6997     0.0000    96.0000 </r>
       <r>     7.7895     0.0000    96.0000 </r>
       <r>     7.8793     0.0000    96.0000 </r>
       <r>     7.9691     0.0000    96.0000 </r>
       <r>     8.0589     0.0000    96.0000 </r>
       <r>     8.1487     0.0000    96.0000 </r>
      </set>
     </set>
    </array>
   </total>
  </dos>
 </calculation>
 <structure name="finalpos" >
  <crystal>
   <varray name="basis" >
    <v>      -3.15184252      -3.15184252       0.00000000 </v>
    <v>       4.45737844      -4.45737844       0.00000000 </v>
    <v>      16.28569382     -16.28569382      23.03144907 </v>
   </varray>
   <i name="volume">    647.13558004 </i>
   <varray name="rec_basis" >
    <v>      -0.15863737      -0.15863737       0.00000000 </v>
    <v>       0.11217356      -0.11217356      -0.15863737 </v>
    <v>       0.00000000       0.00000000       0.04341889 </v>
   </varray>
  </crystal>
  <varray name="positions" >
   <v>       0.50000017       0.49999983       0.26051335 </v>
   <v>       0.00000010       0.49999983       0.32893812 </v>
   <v>       0.50000017       0.99999990       0.26051335 </v>
   <v>       0.50000017       0.49999983       0.39736286 </v>
   <v>       0.00000010       0.49999983       0.46578763 </v>
   <v>       0.50000017       0.00000010       0.39736286 </v>
   <v>       0.50000017       0.49999983       0.53421237 </v>
   <v>       0.00000010       0.49999983       0.60263714 </v>
   <v>       0.50000017       0.99999990       0.53421237 </v>
   <v>       0.50000017       0.49999983       0.67106188 </v>
   <v>       0.00000010       0.49999983       0.73948665 </v>
   <v>       0.50000017       0.00000010       0.67106188 </v>
   <v>       0.50000017       0.49999983       0.32893812 </v>
   <v>       0.50000017       0.49999983       0.46578763 </v>
   <v>       0.50000017       0.49999983       0.60263714 </v>
   <v>       0.50000017       0.49999983       0.73948665 </v>
   <v>       0.00000010       0.99999990       0.32893810 </v>
   <v>       0.00000010       0.00000010       0.46578761 </v>
   <v>       0.00000010       0.99999990       0.60263712 </v>
   <v>       0.00000010       0.99999990       0.73948663 </v>
  </varray>
 </structure>
</modeling>
