unknown system                          
           1
    -3.151843   -3.151843    0.000000
     4.457378   -4.457378    0.000000
    16.285694  -16.285694   23.031449
   Na   O    Cl
    12     4     4
Direct configuration=     1
   0.50000017  0.49999983  0.26051335
   0.00000010  0.49999983  0.32893812
   0.50000017  0.99999990  0.26051335
   0.50000017  0.49999983  0.39736286
   0.00000010  0.49999983  0.46578763
   0.50000017  0.00000010  0.39736286
   0.50000017  0.49999983  0.53421237
   0.00000010  0.49999983  0.60263714
   0.50000017  0.99999990  0.53421237
   0.50000017  0.49999983  0.67106188
   0.00000010  0.49999983  0.73948665
   0.50000017  0.00000010  0.67106188
   0.50000017  0.49999983  0.32893812
   0.50000017  0.49999983  0.46578763
   0.50000017  0.49999983  0.60263714
   0.50000017  0.49999983  0.73948665
   0.00000010  0.99999990  0.32893810
   0.00000010  0.00000010  0.46578761
   0.00000010  0.99999990  0.60263712
   0.00000010  0.99999990  0.73948663
