 108 108   0   0
  0.5144862E+02  0.1258636E-08  0.1779980E-08  0.3507498E-08  0.5000000E-15
  1.000000000000000E-004
  CAR 
 unknown system                          
      2.64469689     -4.52640086  301     -0.35265294      1.00000000
     -4.526  0.0000E+00  0.0000E+00
     -4.502  0.0000E+00  0.0000E+00
     -4.479  0.0000E+00  0.0000E+00
     -4.455  0.0000E+00  0.0000E+00
     -4.431  0.0000E+00  0.0000E+00
     -4.407  0.0000E+00  0.0000E+00
     -4.383  0.0000E+00  0.0000E+00
     -4.359  0.0000E+00  0.0000E+00
     -4.335  0.0000E+00  0.0000E+00
     -4.311  0.0000E+00  0.0000E+00
     -4.287  0.0000E+00  0.0000E+00
     -4.263  0.0000E+00  0.0000E+00
     -4.240  0.0000E+00  0.0000E+00
     -4.216  0.0000E+00  0.0000E+00
     -4.192  0.0000E+00  0.0000E+00
     -4.168  0.0000E+00  0.0000E+00
     -4.144  0.0000E+00  0.0000E+00
     -4.120  0.0000E+00  0.0000E+00
     -4.096  0.2032E-16  0.4857E-18
     -4.072  0.2845E-15  0.7286E-17
     -4.048  0.3797E-14  0.9805E-16
     -4.024  0.4505E-13  0.1175E-14
     -4.001  0.4772E-12  0.1258E-13
     -3.977  0.4513E-11  0.1205E-12
     -3.953  0.3811E-10  0.1031E-11
     -3.929  0.2872E-09  0.7897E-11
     -3.905  0.1933E-08  0.5411E-10
     -3.881  0.1162E-07  0.3318E-09
     -3.857  0.6232E-07  0.1821E-08
     -3.833  0.2985E-06  0.8957E-08
     -3.809  0.1277E-05  0.3948E-07
     -3.785  0.4876E-05  0.1560E-06
     -3.761  0.1663E-04  0.5535E-06
     -3.738  0.5063E-04  0.1764E-05
     -3.714  0.1377E-03  0.5055E-05
     -3.690  0.3343E-03  0.1305E-04
     -3.666  0.7252E-03  0.3038E-04
     -3.642  0.1405E-02  0.6397E-04
     -3.618  0.2435E-02  0.1222E-03
     -3.594  0.3778E-02  0.2125E-03
     -3.570  0.5260E-02  0.3382E-03
     -3.546  0.6608E-02  0.4962E-03
     -3.522  0.7561E-02  0.6769E-03
     -3.499  0.8018E-02  0.8686E-03
     -3.475  0.8094E-02  0.1062E-02
     -3.451  0.8036E-02  0.1254E-02
     -3.427  0.8038E-02  0.1446E-02
     -3.403  0.8097E-02  0.1640E-02
     -3.379  0.8012E-02  0.1831E-02
     -3.355  0.7545E-02  0.2012E-02
     -3.331  0.6602E-02  0.2170E-02
     -3.307  0.5328E-02  0.2297E-02
     -3.283  0.4052E-02  0.2394E-02
     -3.260  0.3172E-02  0.2470E-02
     -3.236  0.3046E-02  0.2542E-02
     -3.212  0.3963E-02  0.2637E-02
     -3.188  0.6141E-02  0.2784E-02
     -3.164  0.9692E-02  0.3016E-02
     -3.140  0.1454E-01  0.3363E-02
     -3.116  0.2027E-01  0.3848E-02
     -3.092  0.2613E-01  0.4472E-02
     -3.068  0.3108E-01  0.5215E-02
     -3.044  0.3424E-01  0.6034E-02
     -3.020  0.3531E-01  0.6878E-02
     -2.997  0.3477E-01  0.7709E-02
     -2.973  0.3370E-01  0.8514E-02
     -2.949  0.3303E-01  0.9304E-02
     -2.925  0.3298E-01  0.1009E-01
     -2.901  0.3293E-01  0.1088E-01
     -2.877  0.3190E-01  0.1164E-01
     -2.853  0.2936E-01  0.1234E-01
     -2.829  0.2561E-01  0.1296E-01
     -2.805  0.2167E-01  0.1347E-01
     -2.781  0.1878E-01  0.1392E-01
     -2.758  0.1785E-01  0.1435E-01
     -2.734  0.1933E-01  0.1481E-01
     -2.710  0.2319E-01  0.1537E-01
     -2.686  0.2900E-01  0.1606E-01
     -2.662  0.3589E-01  0.1692E-01
     -2.638  0.4265E-01  0.1794E-01
     -2.614  0.4789E-01  0.1908E-01
     -2.590  0.5051E-01  0.2029E-01
     -2.566  0.5006E-01  0.2149E-01
     -2.542  0.4702E-01  0.2261E-01
     -2.518  0.4267E-01  0.2363E-01
     -2.495  0.3856E-01  0.2455E-01
     -2.471  0.3590E-01  0.2541E-01
     -2.447  0.3502E-01  0.2625E-01
     -2.423  0.3538E-01  0.2709E-01
     -2.399  0.3613E-01  0.2796E-01
     -2.375  0.3683E-01  0.2884E-01
     -2.351  0.3768E-01  0.2974E-01
     -2.327  0.3918E-01  0.3067E-01
     -2.303  0.4151E-01  0.3167E-01
     -2.279  0.4423E-01  0.3272E-01
     -2.256  0.4646E-01  0.3383E-01
     -2.232  0.4747E-01  0.3497E-01
     -2.208  0.4698E-01  0.3609E-01
     -2.184  0.4500E-01  0.3717E-01
     -2.160  0.4157E-01  0.3816E-01
     -2.136  0.3666E-01  0.3904E-01
     -2.112  0.3044E-01  0.3976E-01
     -2.088  0.2344E-01  0.4032E-01
     -2.064  0.1654E-01  0.4072E-01
     -2.040  0.1065E-01  0.4097E-01
     -2.017  0.6356E-02  0.4113E-01
     -1.993  0.3896E-02  0.4122E-01
     -1.969  0.3338E-02  0.4130E-01
     -1.945  0.4859E-02  0.4141E-01
     -1.921  0.8866E-02  0.4163E-01
     -1.897  0.1580E-01  0.4200E-01
     -1.873  0.2565E-01  0.4262E-01
     -1.849  0.3746E-01  0.4351E-01
     -1.825  0.4912E-01  0.4469E-01
     -1.801  0.5796E-01  0.4607E-01
     -1.777  0.6179E-01  0.4755E-01
     -1.754  0.6000E-01  0.4898E-01
     -1.730  0.5398E-01  0.5027E-01
     -1.706  0.4637E-01  0.5138E-01
     -1.682  0.3986E-01  0.5234E-01
     -1.658  0.3594E-01  0.5319E-01
     -1.634  0.3453E-01  0.5402E-01
     -1.610  0.3448E-01  0.5484E-01
     -1.586  0.3455E-01  0.5567E-01
     -1.562  0.3420E-01  0.5649E-01
     -1.538  0.3375E-01  0.5729E-01
     -1.515  0.3380E-01  0.5810E-01
     -1.491  0.3463E-01  0.5893E-01
     -1.467  0.3596E-01  0.5979E-01
     -1.443  0.3736E-01  0.6068E-01
     -1.419  0.3879E-01  0.6161E-01
     -1.395  0.4081E-01  0.6259E-01
     -1.371  0.4418E-01  0.6364E-01
     -1.347  0.4936E-01  0.6482E-01
     -1.323  0.5614E-01  0.6616E-01
     -1.299  0.6381E-01  0.6769E-01
     -1.276  0.7163E-01  0.6940E-01
     -1.252  0.7905E-01  0.7129E-01
     -1.228  0.8578E-01  0.7334E-01
     -1.204  0.9149E-01  0.7553E-01
     -1.180  0.9554E-01  0.7781E-01
     -1.156  0.9704E-01  0.8013E-01
     -1.132  0.9533E-01  0.8241E-01
     -1.108  0.9069E-01  0.8458E-01
     -1.084  0.8451E-01  0.8660E-01
     -1.060  0.7876E-01  0.8848E-01
     -1.036  0.7478E-01  0.9027E-01
     -1.013  0.7244E-01  0.9200E-01
     -0.989  0.7038E-01  0.9368E-01
     -0.965  0.6729E-01  0.9529E-01
     -0.941  0.6316E-01  0.9680E-01
     -0.917  0.5953E-01  0.9822E-01
     -0.893  0.5860E-01  0.9962E-01
     -0.869  0.6192E-01  0.1011E+00
     -0.845  0.6950E-01  0.1028E+00
     -0.821  0.7975E-01  0.1047E+00
     -0.797  0.9015E-01  0.1068E+00
     -0.774  0.9803E-01  0.1092E+00
     -0.750  0.1013E+00  0.1116E+00
     -0.726  0.9915E-01  0.1140E+00
     -0.702  0.9187E-01  0.1162E+00
     -0.678  0.8086E-01  0.1181E+00
     -0.654  0.6785E-01  0.1197E+00
     -0.630  0.5443E-01  0.1210E+00
     -0.606  0.4187E-01  0.1220E+00
     -0.582  0.3133E-01  0.1228E+00
     -0.558  0.2399E-01  0.1233E+00
     -0.534  0.2108E-01  0.1238E+00
     -0.511  0.2364E-01  0.1244E+00
     -0.487  0.3206E-01  0.1252E+00
     -0.463  0.4558E-01  0.1263E+00
     -0.439  0.6185E-01  0.1277E+00
     -0.415  0.7707E-01  0.1296E+00
     -0.391  0.8701E-01  0.1317E+00
     -0.367  0.8869E-01  0.1338E+00
     -0.343  0.8177E-01  0.1357E+00
     -0.319  0.6881E-01  0.1374E+00
     -0.295  0.5415E-01  0.1387E+00
     -0.272  0.4190E-01  0.1397E+00
     -0.248  0.3428E-01  0.1405E+00
     -0.224  0.3117E-01  0.1412E+00
     -0.200  0.3067E-01  0.1420E+00
     -0.176  0.3052E-01  0.1427E+00
     -0.152  0.2928E-01  0.1434E+00
     -0.128  0.2706E-01  0.1441E+00
     -0.104  0.2534E-01  0.1447E+00
     -0.080  0.2622E-01  0.1453E+00
     -0.056  0.3140E-01  0.1460E+00
     -0.033  0.4146E-01  0.1470E+00
     -0.009  0.5538E-01  0.1483E+00
      0.015  0.7075E-01  0.1500E+00
      0.039  0.8442E-01  0.1521E+00
      0.063  0.9349E-01  0.1543E+00
      0.087  0.9633E-01  0.1566E+00
      0.111  0.9304E-01  0.1588E+00
      0.135  0.8535E-01  0.1609E+00
      0.159  0.7578E-01  0.1627E+00
      0.183  0.6664E-01  0.1643E+00
      0.207  0.5924E-01  0.1657E+00
      0.230  0.5371E-01  0.1670E+00
      0.254  0.4947E-01  0.1681E+00
      0.278  0.4602E-01  0.1692E+00
      0.302  0.4352E-01  0.1703E+00
      0.326  0.4276E-01  0.1713E+00
      0.350  0.4455E-01  0.1724E+00
      0.374  0.4904E-01  0.1735E+00
      0.398  0.5549E-01  0.1749E+00
      0.422  0.6267E-01  0.1764E+00
      0.446  0.6964E-01  0.1780E+00
      0.469  0.7621E-01  0.1799E+00
      0.493  0.8298E-01  0.1818E+00
      0.517  0.9071E-01  0.1840E+00
      0.541  0.9964E-01  0.1864E+00
      0.565  0.1090E+00  0.1890E+00
      0.589  0.1172E+00  0.1918E+00
      0.613  0.1222E+00  0.1947E+00
      0.637  0.1226E+00  0.1976E+00
      0.661  0.1177E+00  0.2005E+00
      0.685  0.1081E+00  0.2030E+00
      0.709  0.9507E-01  0.2053E+00
      0.732  0.8059E-01  0.2072E+00
      0.756  0.6707E-01  0.2088E+00
      0.780  0.5699E-01  0.2102E+00
      0.804  0.5225E-01  0.2115E+00
      0.828  0.5362E-01  0.2127E+00
      0.852  0.6017E-01  0.2142E+00
      0.876  0.6945E-01  0.2158E+00
      0.900  0.7819E-01  0.2177E+00
      0.924  0.8354E-01  0.2197E+00
      0.948  0.8407E-01  0.2217E+00
      0.971  0.8020E-01  0.2236E+00
      0.995  0.7379E-01  0.2254E+00
      1.019  0.6712E-01  0.2270E+00
      1.043  0.6193E-01  0.2285E+00
      1.067  0.5901E-01  0.2299E+00
      1.091  0.5852E-01  0.2313E+00
      1.115  0.6077E-01  0.2327E+00
      1.139  0.6653E-01  0.2343E+00
      1.163  0.7672E-01  0.2362E+00
      1.187  0.9148E-01  0.2384E+00
      1.210  0.1093E+00  0.2410E+00
      1.234  0.1273E+00  0.2440E+00
      1.258  0.1419E+00  0.2474E+00
      1.282  0.1508E+00  0.2510E+00
      1.306  0.1530E+00  0.2547E+00
      1.330  0.1492E+00  0.2582E+00
      1.354  0.1408E+00  0.2616E+00
      1.378  0.1293E+00  0.2647E+00
      1.402  0.1158E+00  0.2675E+00
      1.426  0.1013E+00  0.2699E+00
      1.450  0.8642E-01  0.2719E+00
      1.473  0.7140E-01  0.2736E+00
      1.497  0.5677E-01  0.2750E+00
      1.521  0.4336E-01  0.2760E+00
      1.545  0.3225E-01  0.2768E+00
      1.569  0.2427E-01  0.2774E+00
      1.593  0.1952E-01  0.2779E+00
      1.617  0.1724E-01  0.2783E+00
      1.641  0.1613E-01  0.2787E+00
      1.665  0.1497E-01  0.2790E+00
      1.689  0.1307E-01  0.2793E+00
      1.712  0.1043E-01  0.2796E+00
      1.736  0.7514E-02  0.2798E+00
      1.760  0.4852E-02  0.2799E+00
      1.784  0.2803E-02  0.2799E+00
      1.808  0.1447E-02  0.2800E+00
      1.832  0.6672E-03  0.2800E+00
      1.856  0.2747E-03  0.2800E+00
      1.880  0.1010E-03  0.2800E+00
      1.904  0.3317E-04  0.2800E+00
      1.928  0.9726E-05  0.2800E+00
      1.951  0.2546E-05  0.2800E+00
      1.975  0.5952E-06  0.2800E+00
      1.999  0.1242E-06  0.2800E+00
      2.023  0.2315E-07  0.2800E+00
      2.047  0.3852E-08  0.2800E+00
      2.071  0.5722E-09  0.2800E+00
      2.095  0.7588E-10  0.2800E+00
      2.119  0.8986E-11  0.2800E+00
      2.143  0.9499E-12  0.2800E+00
      2.167  0.8965E-13  0.2800E+00
      2.191  0.7559E-14  0.2800E+00
      2.214  0.5573E-15  0.2800E+00
      2.238  0.4645E-16  0.2800E+00
      2.262  0.0000E+00  0.2800E+00
      2.286  0.0000E+00  0.2800E+00
      2.310  0.0000E+00  0.2800E+00
      2.334  0.0000E+00  0.2800E+00
      2.358  0.0000E+00  0.2800E+00
      2.382  0.0000E+00  0.2800E+00
      2.406  0.0000E+00  0.2800E+00
      2.430  0.0000E+00  0.2800E+00
      2.453  0.0000E+00  0.2800E+00
      2.477  0.0000E+00  0.2800E+00
      2.501  0.0000E+00  0.2800E+00
      2.525  0.0000E+00  0.2800E+00
      2.549  0.0000E+00  0.2800E+00
      2.573  0.0000E+00  0.2800E+00
      2.597  0.0000E+00  0.2800E+00
      2.621  0.0000E+00  0.2800E+00
      2.645  0.0000E+00  0.2800E+00
