       N       E                     dE             d eps       ncg     rms          rms(c)
DAV:   1     0.276957603040E+01    0.27696E+01   -0.17784E+04   448   0.460E+02
DAV:   2    -0.132268426289E+03   -0.13504E+03   -0.12463E+03   512   0.592E+01
DAV:   3    -0.141680990923E+03   -0.94126E+01   -0.88738E+01   584   0.142E+01
DAV:   4    -0.142190555455E+03   -0.50956E+00   -0.50718E+00   688   0.366E+00
DAV:   5    -0.142226426677E+03   -0.35871E-01   -0.35864E-01   712   0.931E-01    0.330E+00
RMM:   6    -0.140320594956E+03    0.19058E+01   -0.52948E-01   448   0.495E-01    0.215E+00
RMM:   7    -0.138917396330E+03    0.14032E+01   -0.24416E+00   461   0.102E+00    0.833E-01
RMM:   8    -0.138705863231E+03    0.21153E+00   -0.27034E-01   449   0.715E-01    0.521E-01
RMM:   9    -0.138557749566E+03    0.14811E+00   -0.16473E-01   448   0.424E-01    0.502E-01
RMM:  10    -0.138440318056E+03    0.11743E+00   -0.99936E-02   448   0.385E-01    0.261E-01
RMM:  11    -0.138323216421E+03    0.11710E+00   -0.12525E-01   450   0.337E-01    0.256E-01
RMM:  12    -0.138372617808E+03   -0.49401E-01   -0.77424E-02   458   0.246E-01    0.198E-01
RMM:  13    -0.138419956070E+03   -0.47338E-01   -0.30536E-02   448   0.194E-01    0.967E-02
RMM:  14    -0.138427306693E+03   -0.73506E-02   -0.13532E-02   448   0.129E-01    0.477E-02
RMM:  15    -0.138437964554E+03   -0.10658E-01   -0.45123E-03   448   0.864E-02    0.354E-02
RMM:  16    -0.138438225267E+03   -0.26071E-03   -0.92901E-04   476   0.497E-02    0.813E-03
RMM:  17    -0.138438293125E+03   -0.67859E-04   -0.28524E-04   534   0.297E-02    0.451E-03
RMM:  18    -0.138438290284E+03    0.28408E-05   -0.61624E-05   514   0.140E-02    0.223E-03
RMM:  19    -0.138438291778E+03   -0.14935E-05   -0.19213E-05   530   0.667E-03    0.748E-04
RMM:  20    -0.138438292117E+03   -0.33952E-06   -0.34757E-06   560   0.323E-03    0.351E-04
RMM:  21    -0.138438292129E+03   -0.11262E-07   -0.42530E-07   549   0.113E-03    0.211E-04
RMM:  22    -0.138438292131E+03   -0.23153E-08   -0.90954E-08   481   0.538E-04
   1 F= -.13843829E+03 E0= -.13827307E+03  d E =-.138438E+03
       N       E                     dE             d eps       ncg     rms          rms(c)
DAV:   1    -0.138442939237E+03   -0.46471E-02   -0.37226E-03   528   0.130E-01    0.899E-03
RMM:   2    -0.138442935778E+03    0.34593E-05   -0.96666E-05   448   0.193E-02    0.470E-03
RMM:   3    -0.138442934405E+03    0.13728E-05   -0.27538E-05   457   0.813E-03    0.113E-03
RMM:   4    -0.138442935414E+03   -0.10087E-05   -0.82104E-06   513   0.495E-03    0.803E-04
RMM:   5    -0.138442935590E+03   -0.17586E-06   -0.15853E-06   547   0.224E-03    0.586E-04
RMM:   6    -0.138442935676E+03   -0.86661E-07   -0.24931E-07   496   0.817E-04    0.316E-04
RMM:   7    -0.138442935636E+03    0.40803E-07   -0.94729E-08   471   0.518E-04    0.136E-04
RMM:   8    -0.138442935639E+03   -0.36456E-08   -0.29391E-08   384   0.324E-04
   2 F= -.13844294E+03 E0= -.13827773E+03  d E =-.464351E-02
       N       E                     dE             d eps       ncg     rms          rms(c)
DAV:   1    -0.138455975228E+03   -0.13040E-01   -0.33478E-02   496   0.392E-01    0.269E-02
RMM:   2    -0.138455938428E+03    0.36800E-04   -0.84898E-04   448   0.579E-02    0.141E-02
RMM:   3    -0.138455920963E+03    0.17465E-04   -0.24220E-04   454   0.244E-02    0.333E-03
RMM:   4    -0.138455929242E+03   -0.82797E-05   -0.75482E-05   513   0.152E-02    0.244E-03
RMM:   5    -0.138455930804E+03   -0.15617E-05   -0.14462E-05   546   0.685E-03    0.185E-03
RMM:   6    -0.138455931505E+03   -0.70089E-06   -0.23680E-06   476   0.251E-03    0.116E-03
RMM:   7    -0.138455931150E+03    0.35515E-06   -0.12135E-06   471   0.181E-03    0.491E-04
RMM:   8    -0.138455931190E+03   -0.40520E-07   -0.41770E-07   562   0.110E-03    0.417E-04
RMM:   9    -0.138455931190E+03    0.81889E-09   -0.64090E-08   442   0.399E-04
   3 F= -.13845593E+03 E0= -.13829077E+03  d E =-.176391E-01
       N       E                     dE             d eps       ncg     rms          rms(c)
DAV:   1    -0.138479402744E+03   -0.23472E-01   -0.13399E-01   464   0.784E-01    0.536E-02
RMM:   2    -0.138479265003E+03    0.13774E-03   -0.33745E-03   448   0.116E-01    0.281E-02
RMM:   3    -0.138479193654E+03    0.71349E-04   -0.96386E-04   454   0.487E-02    0.643E-03
RMM:   4    -0.138479225362E+03   -0.31708E-04   -0.29707E-04   513   0.302E-02    0.478E-03
RMM:   5    -0.138479231524E+03   -0.61617E-05   -0.57427E-05   546   0.137E-02    0.357E-03
RMM:   6    -0.138479233929E+03   -0.24056E-05   -0.96087E-06   481   0.501E-03    0.240E-03
RMM:   7    -0.138479232644E+03    0.12849E-05   -0.47787E-06   467   0.352E-03    0.115E-03
RMM:   8    -0.138479232781E+03   -0.13634E-06   -0.16836E-06   556   0.222E-03    0.118E-03
RMM:   9    -0.138479232844E+03   -0.63642E-07   -0.25742E-07   536   0.856E-04    0.101E-03
RMM:  10    -0.138479233231E+03   -0.38615E-06   -0.28671E-07   448   0.677E-04    0.215E-03
RMM:  11    -0.138479233278E+03   -0.47423E-07   -0.13668E-07   441   0.442E-04    0.227E-03
RMM:  12    -0.138479233512E+03   -0.23381E-06   -0.49504E-07   475   0.696E-04    0.114E-03
RMM:  13    -0.138479234276E+03   -0.76391E-06   -0.31191E-07   457   0.594E-04    0.174E-03
RMM:  14    -0.138479234478E+03   -0.20197E-06   -0.58522E-08   414   0.340E-04    0.121E-03
RMM:  15    -0.138479234566E+03   -0.88295E-07   -0.11111E-07   453   0.344E-04    0.425E-04
RMM:  16    -0.138479234603E+03   -0.36869E-07   -0.39844E-08   422   0.227E-04    0.693E-05
RMM:  17    -0.138479234604E+03   -0.11644E-08   -0.39084E-09   295   0.106E-04
   4 F= -.13847923E+03 E0= -.13831418E+03  d E =-.409425E-01
       N       E                     dE             d eps       ncg     rms          rms(c)
DAV:   1    -0.138512563632E+03   -0.33329E-01   -0.53797E-01   448   0.157E+00    0.107E-01
RMM:   2    -0.138512021640E+03    0.54199E-03   -0.13551E-02   448   0.232E-01    0.564E-02
RMM:   3    -0.138511721042E+03    0.30060E-03   -0.39211E-03   453   0.980E-02    0.126E-02
RMM:   4    -0.138511847359E+03   -0.12632E-03   -0.11926E-03   513   0.609E-02    0.966E-03
RMM:   5    -0.138511873270E+03   -0.25911E-04   -0.23205E-04   545   0.276E-02    0.685E-03
RMM:   6    -0.138511882642E+03   -0.93715E-05   -0.40737E-05   486   0.102E-02    0.480E-03
RMM:   7    -0.138511878955E+03    0.36868E-05   -0.18856E-05   470   0.701E-03    0.210E-03
RMM:   8    -0.138511879649E+03   -0.69455E-06   -0.68464E-06   564   0.441E-03    0.175E-03
RMM:   9    -0.138511879529E+03    0.12032E-06   -0.83506E-07   494   0.154E-03    0.176E-03
RMM:  10    -0.138511878555E+03    0.97378E-06   -0.18806E-06   449   0.134E-03    0.486E-03
RMM:  11    -0.138511880934E+03   -0.23792E-05   -0.39813E-06   456   0.158E-03    0.807E-03
RMM:  12    -0.138511885506E+03   -0.45712E-05   -0.16940E-06   452   0.156E-03    0.111E-02
RMM:  13    -0.138511887824E+03   -0.23188E-05   -0.66389E-07   448   0.909E-04    0.101E-02
RMM:  14    -0.138511885198E+03    0.26263E-05   -0.26970E-06   500   0.130E-03    0.624E-03
RMM:  15    -0.138511884186E+03    0.10120E-05   -0.83537E-07   448   0.806E-04    0.460E-03
RMM:  16    -0.138511883515E+03    0.67047E-06   -0.99645E-07   451   0.825E-04    0.276E-03
RMM:  17    -0.138511883380E+03    0.13597E-06   -0.31875E-07   448   0.634E-04    0.170E-03
RMM:  18    -0.138511883331E+03    0.48404E-07   -0.12880E-07   448   0.402E-04    0.107E-03
RMM:  19    -0.138511883320E+03    0.10918E-07   -0.58180E-08   409   0.282E-04    0.812E-04
RMM:  20    -0.138511883316E+03    0.38419E-08   -0.34064E-08   395   0.210E-04
   5 F= -.13851188E+03 E0= -.13834706E+03  d E =-.735912E-01
       N       E                     dE             d eps       ncg     rms          rms(c)
DAV:   1    -0.138524744511E+03   -0.12861E-01   -0.21719E+00   448   0.316E+00    0.209E-01
RMM:   2    -0.138523144216E+03    0.16003E-02   -0.53573E-02   448   0.464E-01    0.112E-01
RMM:   3    -0.138522020854E+03    0.11234E-02   -0.15398E-02   450   0.198E-01    0.242E-02
RMM:   4    -0.138522533505E+03   -0.51265E-03   -0.48930E-03   514   0.124E-01    0.193E-02
RMM:   5    -0.138522639557E+03   -0.10605E-03   -0.96062E-04   542   0.568E-02    0.130E-02
RMM:   6    -0.138522670251E+03   -0.30694E-04   -0.17740E-04   500   0.213E-02    0.988E-03
RMM:   7    -0.138522654958E+03    0.15293E-04   -0.73212E-05   474   0.137E-02    0.477E-03
RMM:   8    -0.138522658053E+03   -0.30953E-05   -0.27318E-05   564   0.868E-03    0.348E-03
RMM:   9    -0.138522654348E+03    0.37048E-05   -0.37558E-06   480   0.313E-03    0.332E-03
RMM:  10    -0.138522649298E+03    0.50499E-05   -0.45842E-06   448   0.257E-03    0.347E-03
RMM:  11    -0.138522658105E+03   -0.88064E-05   -0.18284E-06   460   0.199E-03    0.217E-03
RMM:  12    -0.138522671965E+03   -0.13861E-04   -0.45241E-06   480   0.198E-03    0.794E-04
RMM:  13    -0.138522679268E+03   -0.73031E-05   -0.30610E-06   459   0.204E-03    0.109E-03
RMM:  14    -0.138522679821E+03   -0.55229E-06   -0.26254E-07   459   0.106E-03    0.600E-04
RMM:  15    -0.138522680106E+03   -0.28587E-06   -0.22190E-07   432   0.793E-04    0.148E-04
RMM:  16    -0.138522680127E+03   -0.20714E-07   -0.54855E-08   410   0.434E-04    0.395E-05
RMM:  17    -0.138522680141E+03   -0.14289E-07   -0.19966E-08   352   0.253E-04    0.566E-05
RMM:  18    -0.138522680143E+03   -0.17232E-08   -0.60346E-09   322   0.161E-04
   6 F= -.13852268E+03 E0= -.13835839E+03  d E =-.843880E-01
       N       E                     dE             d eps       ncg     rms          rms(c)
DAV:   1    -0.138527873743E+03   -0.51936E-02   -0.30899E-01   464   0.119E+00    0.782E-02
RMM:   2    -0.138527667740E+03    0.20600E-03   -0.78776E-03   448   0.177E-01    0.421E-02
RMM:   3    -0.138527504490E+03    0.16325E-03   -0.21928E-03   449   0.756E-02    0.941E-03
RMM:   4    -0.138527581996E+03   -0.77506E-04   -0.76058E-04   518   0.483E-02    0.771E-03
RMM:   5    -0.138527597934E+03   -0.15938E-04   -0.14281E-04   539   0.217E-02    0.545E-03
RMM:   6    -0.138527602026E+03   -0.40928E-05   -0.26859E-05   489   0.821E-03    0.375E-03
RMM:   7    -0.138527601291E+03    0.73530E-06   -0.96981E-06   477   0.537E-03    0.156E-03
RMM:   8    -0.138527601682E+03   -0.39034E-06   -0.41210E-06   550   0.342E-03    0.118E-03
RMM:   9    -0.138527601156E+03    0.52567E-06   -0.53446E-07   491   0.124E-03    0.131E-03
RMM:  10    -0.138527600601E+03    0.55493E-06   -0.55641E-07   448   0.918E-04    0.129E-03
RMM:  11    -0.138527601270E+03   -0.66891E-06   -0.30136E-07   455   0.758E-04    0.828E-04
RMM:  12    -0.138527602327E+03   -0.10567E-05   -0.33159E-07   454   0.644E-04    0.435E-04
RMM:  13    -0.138527602961E+03   -0.63476E-06   -0.34146E-07   463   0.603E-04    0.252E-04
RMM:  14    -0.138527603043E+03   -0.81811E-07   -0.42245E-08   379   0.363E-04    0.168E-04
RMM:  15    -0.138527603082E+03   -0.39296E-07   -0.17418E-08   335   0.242E-04    0.896E-05
RMM:  16    -0.138527603097E+03   -0.14200E-07   -0.55356E-09   309   0.153E-04    0.239E-05
RMM:  17    -0.138527603101E+03   -0.47530E-08   -0.19283E-09   289   0.995E-05
   7 F= -.13852760E+03 E0= -.13836310E+03  d E =-.893110E-01
       N       E                     dE             d eps       ncg     rms          rms(c)
DAV:   1    -0.138537445533E+03   -0.98424E-02   -0.94281E-02   464   0.671E-01    0.312E-02
RMM:   2    -0.138537494572E+03   -0.49040E-04   -0.14870E-03   448   0.792E-02    0.175E-02
RMM:   3    -0.138537511180E+03   -0.16608E-04   -0.39280E-04   484   0.353E-02    0.604E-03
RMM:   4    -0.138537527847E+03   -0.16667E-04   -0.12008E-04   534   0.193E-02    0.358E-03
RMM:   5    -0.138537530861E+03   -0.30138E-05   -0.20613E-05   547   0.750E-03    0.218E-03
RMM:   6    -0.138537531421E+03   -0.56005E-06   -0.35301E-06   502   0.320E-03    0.727E-04
RMM:   7    -0.138537531196E+03    0.22533E-06   -0.12926E-06   558   0.178E-03    0.596E-04
RMM:   8    -0.138537530537E+03    0.65835E-06   -0.37817E-07   450   0.767E-04    0.660E-04
RMM:   9    -0.138537530897E+03   -0.35938E-06   -0.11698E-07   457   0.517E-04    0.273E-04
RMM:  10    -0.138537531260E+03   -0.36358E-06   -0.87749E-08   419   0.395E-04    0.225E-04
RMM:  11    -0.138537532080E+03   -0.81995E-06   -0.26214E-07   438   0.518E-04    0.246E-04
RMM:  12    -0.138537532318E+03   -0.23802E-06   -0.10457E-07   406   0.417E-04    0.954E-05
RMM:  13    -0.138537532347E+03   -0.28719E-07   -0.17369E-08   354   0.249E-04    0.368E-05
RMM:  14    -0.138537532368E+03   -0.21194E-07   -0.58913E-09   314   0.146E-04    0.303E-05
RMM:  15    -0.138537532369E+03   -0.13438E-08   -0.18780E-09   271   0.870E-05
   8 F= -.13853753E+03 E0= -.13837385E+03  d E =-.992927E-02
       N       E                     dE             d eps       ncg     rms          rms(c)
DAV:   1    -0.138540715838E+03   -0.31835E-02   -0.33370E-02   464   0.399E-01    0.186E-02
RMM:   2    -0.138540735091E+03   -0.19253E-04   -0.52964E-04   448   0.471E-02    0.105E-02
RMM:   3    -0.138540742456E+03   -0.73651E-05   -0.13946E-04   484   0.211E-02    0.363E-03
RMM:   4    -0.138540748782E+03   -0.63257E-05   -0.43230E-05   535   0.115E-02    0.214E-03
RMM:   5    -0.138540749813E+03   -0.10310E-05   -0.72759E-06   549   0.445E-03    0.132E-03
RMM:   6    -0.138540750021E+03   -0.20865E-06   -0.11954E-06   500   0.187E-03    0.432E-04
RMM:   7    -0.138540749904E+03    0.11714E-06   -0.44459E-07   545   0.105E-03    0.350E-04
RMM:   8    -0.138540749639E+03    0.26560E-06   -0.13057E-07   436   0.460E-04    0.400E-04
RMM:   9    -0.138540749798E+03   -0.15965E-06   -0.45770E-08   416   0.320E-04    0.166E-04
RMM:  10    -0.138540749936E+03   -0.13764E-06   -0.29287E-08   378   0.239E-04    0.136E-04
RMM:  11    -0.138540750240E+03   -0.30387E-06   -0.89033E-08   401   0.310E-04    0.152E-04
RMM:  12    -0.138540750320E+03   -0.80245E-07   -0.39070E-08   359   0.256E-04    0.613E-05
RMM:  13    -0.138540750332E+03   -0.11842E-07   -0.76113E-09   314   0.157E-04    0.240E-05
RMM:  14    -0.138540750344E+03   -0.12122E-07   -0.22266E-09   271   0.933E-05    0.170E-05
RMM:  15    -0.138540750344E+03   -0.35755E-09   -0.72869E-10   242   0.617E-05
   9 F= -.13854075E+03 E0= -.13837750E+03  d E =-.131472E-01
       N       E                     dE             d eps       ncg     rms          rms(c)
DAV:   1    -0.138543632573E+03   -0.28822E-02   -0.13403E-01   464   0.800E-01    0.370E-02
RMM:   2    -0.138543705781E+03   -0.73208E-04   -0.21059E-03   448   0.944E-02    0.208E-02
RMM:   3    -0.138543730208E+03   -0.24427E-04   -0.54907E-04   484   0.421E-02    0.730E-03
RMM:   4    -0.138543753693E+03   -0.23485E-04   -0.17002E-04   534   0.230E-02    0.422E-03
RMM:   5    -0.138543757824E+03   -0.41308E-05   -0.29030E-05   548   0.892E-03    0.261E-03
RMM:   6    -0.138543758435E+03   -0.61090E-06   -0.48399E-06   500   0.377E-03    0.871E-04
RMM:   7    -0.138543758096E+03    0.33888E-06   -0.17932E-06   558   0.212E-03    0.710E-04
RMM:   8    -0.138543757016E+03    0.10802E-05   -0.57111E-07   452   0.937E-04    0.838E-04
RMM:   9    -0.138543757586E+03   -0.57026E-06   -0.18449E-07   464   0.640E-04    0.347E-04
RMM:  10    -0.138543758276E+03   -0.68959E-06   -0.13975E-07   432   0.498E-04    0.277E-04
RMM:  11    -0.138543759638E+03   -0.13625E-05   -0.41366E-07   440   0.647E-04    0.298E-04
RMM:  12    -0.138543760069E+03   -0.43060E-06   -0.17609E-07   418   0.541E-04    0.129E-04
RMM:  13    -0.138543760127E+03   -0.58069E-07   -0.32357E-08   363   0.333E-04    0.477E-05
RMM:  14    -0.138543760157E+03   -0.30172E-07   -0.99605E-09   325   0.194E-04    0.321E-05
RMM:  15    -0.138543760158E+03   -0.75852E-09   -0.27369E-09   289   0.105E-04
  10 F= -.13854376E+03 E0= -.13838126E+03  d E =-.161571E-01
       N       E                     dE             d eps       ncg     rms          rms(c)
DAV:   1    -0.138551459102E+03   -0.76989E-02   -0.14219E-01   464   0.844E-01    0.454E-02
RMM:   2    -0.138551404796E+03    0.54306E-04   -0.30030E-03   448   0.116E-01    0.220E-02
RMM:   3    -0.138551422379E+03   -0.17584E-04   -0.67241E-04   496   0.472E-02    0.996E-03
RMM:   4    -0.138551444277E+03   -0.21897E-04   -0.18389E-04   538   0.234E-02    0.515E-03
RMM:   5    -0.138551448317E+03   -0.40407E-05   -0.28449E-05   552   0.873E-03    0.277E-03
RMM:   6    -0.138551448636E+03   -0.31880E-06   -0.46632E-06   513   0.370E-03    0.716E-04
RMM:   7    -0.138551448454E+03    0.18173E-06   -0.14027E-06   560   0.198E-03    0.580E-04
RMM:   8    -0.138551447739E+03    0.71487E-06   -0.27111E-07   456   0.741E-04    0.497E-04
RMM:   9    -0.138551447738E+03    0.16094E-08   -0.11295E-07   453   0.533E-04    0.335E-04
RMM:  10    -0.138551448203E+03   -0.46546E-06   -0.10772E-07   426   0.384E-04    0.246E-04
RMM:  11    -0.138551448844E+03   -0.64083E-06   -0.11827E-07   417   0.388E-04    0.200E-04
RMM:  12    -0.138551449454E+03   -0.60989E-06   -0.23978E-07   420   0.523E-04    0.153E-04
RMM:  13    -0.138551449505E+03   -0.51537E-07   -0.21967E-08   355   0.267E-04    0.424E-05
RMM:  14    -0.138551449528E+03   -0.22882E-07   -0.10176E-08   317   0.179E-04    0.157E-05
RMM:  15    -0.138551449531E+03   -0.26348E-08   -0.18036E-09   269   0.904E-05
  11 F= -.13855145E+03 E0= -.13838949E+03  d E =-.768937E-02
       N       E                     dE             d eps       ncg     rms          rms(c)
DAV:   1    -0.138556901403E+03   -0.54519E-02   -0.18871E-01   464   0.974E-01    0.521E-02
RMM:   2    -0.138556835382E+03    0.66021E-04   -0.39817E-03   448   0.133E-01    0.254E-02
RMM:   3    -0.138556858895E+03   -0.23513E-04   -0.89326E-04   496   0.545E-02    0.115E-02
RMM:   4    -0.138556887906E+03   -0.29011E-04   -0.24511E-04   538   0.271E-02    0.592E-03
RMM:   5    -0.138556893237E+03   -0.53313E-05   -0.37932E-05   552   0.101E-02    0.319E-03
RMM:   6    -0.138556893616E+03   -0.37920E-06   -0.62568E-06   513   0.429E-03    0.826E-04
RMM:   7    -0.138556893358E+03    0.25878E-06   -0.18746E-06   560   0.229E-03    0.673E-04
RMM:   8    -0.138556892355E+03    0.10025E-05   -0.36617E-07   456   0.859E-04    0.578E-04
RMM:   9    -0.138556892340E+03    0.14857E-07   -0.15355E-07   462   0.619E-04    0.390E-04
RMM:  10    -0.138556892978E+03   -0.63735E-06   -0.14477E-07   426   0.444E-04    0.289E-04
RMM:  11    -0.138556893903E+03   -0.92571E-06   -0.16680E-07   428   0.450E-04    0.232E-04
RMM:  12    -0.138556894783E+03   -0.87954E-06   -0.33591E-07   426   0.607E-04    0.183E-04
RMM:  13    -0.138556894855E+03   -0.72136E-07   -0.29781E-08   368   0.312E-04    0.489E-05
RMM:  14    -0.138556894887E+03   -0.31697E-07   -0.14609E-08   331   0.215E-04    0.184E-05
RMM:  15    -0.138556894890E+03   -0.32322E-08   -0.26500E-09   283   0.109E-04
  12 F= -.13855689E+03 E0= -.13839551E+03  d E =-.131347E-01
       N       E                     dE             d eps       ncg     rms          rms(c)
DAV:   1    -0.138553014745E+03    0.38801E-02   -0.75766E-01   448   0.195E+00    0.104E-01
RMM:   2    -0.138552749540E+03    0.26521E-03   -0.15941E-02   448   0.268E-01    0.511E-02
RMM:   3    -0.138552825809E+03   -0.76270E-04   -0.35247E-03   496   0.109E-01    0.228E-02
RMM:   4    -0.138552936303E+03   -0.11049E-03   -0.96591E-04   537   0.539E-02    0.116E-02
RMM:   5    -0.138552957367E+03   -0.21064E-04   -0.15486E-04   552   0.203E-02    0.642E-03
RMM:   6    -0.138552958569E+03   -0.12024E-05   -0.25451E-05   518   0.861E-03    0.168E-03
RMM:   7    -0.138552957341E+03    0.12285E-05   -0.73623E-06   560   0.451E-03    0.135E-03
RMM:   8    -0.138552952515E+03    0.48260E-05   -0.15822E-06   456   0.172E-03    0.114E-03
RMM:   9    -0.138552952358E+03    0.15675E-06   -0.58805E-07   484   0.122E-03    0.793E-04
RMM:  10    -0.138552955191E+03   -0.28334E-05   -0.60160E-07   452   0.879E-04    0.586E-04
RMM:  11    -0.138552959581E+03   -0.43897E-05   -0.72041E-07   457   0.866E-04    0.467E-04
RMM:  12    -0.138552963964E+03   -0.43824E-05   -0.16034E-06   463   0.126E-03    0.370E-04
RMM:  13    -0.138552964308E+03   -0.34401E-06   -0.13241E-07   406   0.665E-04    0.101E-04
RMM:  14    -0.138552964422E+03   -0.11443E-06   -0.64291E-08   374   0.458E-04    0.410E-05
RMM:  15    -0.138552964433E+03   -0.10451E-07   -0.12924E-08   347   0.225E-04    0.245E-05
RMM:  16    -0.138552964437E+03   -0.42589E-08   -0.42303E-09   324   0.136E-04
  13 F= -.13855296E+03 E0= -.13839257E+03  d E =-.920428E-02
       N       E                     dE             d eps       ncg     rms          rms(c)
DAV:   1    -0.138558325226E+03   -0.53608E-02   -0.37798E-01   448   0.138E+00    0.742E-02
RMM:   2    -0.138558184462E+03    0.14076E-03   -0.80798E-03   448   0.189E-01    0.363E-02
RMM:   3    -0.138558222647E+03   -0.38185E-04   -0.18732E-03   496   0.784E-02    0.161E-02
RMM:   4    -0.138558275920E+03   -0.53274E-04   -0.51176E-04   538   0.394E-02    0.864E-03
RMM:   5    -0.138558286716E+03   -0.10796E-04   -0.77790E-05   552   0.145E-02    0.456E-03
RMM:   6    -0.138558287521E+03   -0.80445E-06   -0.13131E-05   515   0.620E-03    0.120E-03
RMM:   7    -0.138558287274E+03    0.24692E-06   -0.37862E-06   560   0.324E-03    0.939E-04
RMM:   8    -0.138558285861E+03    0.14131E-05   -0.70225E-07   456   0.120E-03    0.821E-04
RMM:   9    -0.138558285771E+03    0.90030E-07   -0.32178E-07   481   0.885E-04    0.535E-04
RMM:  10    -0.138558286478E+03   -0.70732E-06   -0.28137E-07   452   0.619E-04    0.406E-04
RMM:  11    -0.138558287793E+03   -0.13153E-05   -0.24798E-07   432   0.551E-04    0.335E-04
RMM:  12    -0.138558289382E+03   -0.15884E-05   -0.54058E-07   437   0.708E-04    0.243E-04
RMM:  13    -0.138558289577E+03   -0.19475E-06   -0.75797E-08   390   0.426E-04    0.660E-05
RMM:  14    -0.138558289589E+03   -0.11960E-07   -0.28089E-08   356   0.301E-04    0.240E-05
RMM:  15    -0.138558289590E+03   -0.11701E-08   -0.51765E-09   326   0.144E-04
  14 F= -.13855829E+03 E0= -.13839722E+03  d E =-.145294E-01
       N       E                     dE             d eps       ncg     rms          rms(c)
DAV:   1    -0.138565850418E+03   -0.75608E-02   -0.24733E-01   448   0.113E+00    0.582E-02
RMM:   2    -0.138565683210E+03    0.16721E-03   -0.43839E-03   448   0.142E-01    0.275E-02
RMM:   3    -0.138565729953E+03   -0.46742E-04   -0.10497E-03   509   0.589E-02    0.138E-02
RMM:   4    -0.138565760900E+03   -0.30947E-04   -0.23312E-04   544   0.270E-02    0.679E-03
RMM:   5    -0.138565766161E+03   -0.52611E-05   -0.34348E-05   560   0.940E-03    0.236E-03
RMM:   6    -0.138565766440E+03   -0.27877E-06   -0.49464E-06   536   0.379E-03    0.872E-04
RMM:   7    -0.138565766422E+03    0.17479E-07   -0.10097E-06   560   0.175E-03    0.389E-04
RMM:   8    -0.138565766246E+03    0.17645E-06   -0.17061E-07   490   0.696E-04    0.255E-04
RMM:   9    -0.138565766212E+03    0.33422E-07   -0.72031E-08   429   0.457E-04    0.181E-04
RMM:  10    -0.138565766059E+03    0.15343E-06   -0.58179E-08   407   0.322E-04    0.164E-04
RMM:  11    -0.138565766292E+03   -0.23368E-06   -0.42373E-08   382   0.257E-04    0.174E-04
RMM:  12    -0.138565766531E+03   -0.23885E-06   -0.67759E-08   381   0.280E-04    0.944E-05
RMM:  13    -0.138565766615E+03   -0.83647E-07   -0.33127E-08   364   0.238E-04    0.475E-05
RMM:  14    -0.138565766639E+03   -0.23593E-07   -0.80005E-09   322   0.160E-04    0.199E-05
RMM:  15    -0.138565766643E+03   -0.46341E-08   -0.17926E-09   271   0.900E-05
  15 F= -.13856577E+03 E0= -.13840475E+03  d E =-.747705E-02
       N       E                     dE             d eps       ncg     rms          rms(c)
DAV:   1    -0.138566204743E+03   -0.43810E-03   -0.14995E-02   464   0.278E-01    0.143E-02
RMM:   2    -0.138566195496E+03    0.92471E-05   -0.26670E-04   448   0.349E-02    0.677E-03
RMM:   3    -0.138566198799E+03   -0.33035E-05   -0.64355E-05   509   0.146E-02    0.339E-03
RMM:   4    -0.138566200940E+03   -0.21407E-05   -0.14232E-05   544   0.668E-03    0.168E-03
RMM:   5    -0.138566201271E+03   -0.33165E-06   -0.21042E-06   560   0.232E-03    0.575E-04
RMM:   6    -0.138566201276E+03   -0.44632E-08   -0.30246E-07   540   0.935E-04    0.220E-04
RMM:   7    -0.138566201267E+03    0.87388E-08   -0.52037E-08   415   0.426E-04
  16 F= -.13856620E+03 E0= -.13840520E+03  d E =-.791168E-02
       N       E                     dE             d eps       ncg     rms          rms(c)
DAV:   1    -0.138573426512E+03   -0.72252E-02   -0.15665E-01   448   0.893E-01    0.448E-02
RMM:   2    -0.138573384075E+03    0.42437E-04   -0.23116E-03   448   0.102E-01    0.236E-02
RMM:   3    -0.138573387706E+03   -0.36305E-05   -0.54979E-04   495   0.425E-02    0.992E-03
RMM:   4    -0.138573403939E+03   -0.16233E-04   -0.14414E-04   550   0.211E-02    0.479E-03
RMM:   5    -0.138573406719E+03   -0.27805E-05   -0.18318E-05   558   0.739E-03    0.143E-03
RMM:   6    -0.138573406998E+03   -0.27862E-06   -0.26951E-06   547   0.289E-03    0.666E-04
RMM:   7    -0.138573407097E+03   -0.98985E-07   -0.47781E-07   547   0.123E-03    0.234E-04
RMM:   8    -0.138573407145E+03   -0.48540E-07   -0.10352E-07   490   0.579E-04    0.118E-04
RMM:   9    -0.138573407154E+03   -0.89209E-08   -0.32120E-08   377   0.338E-04
  17 F= -.13857341E+03 E0= -.13841201E+03  d E =-.720589E-02
       N       E                     dE             d eps       ncg     rms          rms(c)
DAV:   1    -0.138577654055E+03   -0.42469E-02   -0.18440E-01   448   0.968E-01    0.486E-02
RMM:   2    -0.138577603465E+03    0.50590E-04   -0.27089E-03   448   0.110E-01    0.256E-02
RMM:   3    -0.138577607684E+03   -0.42188E-05   -0.64479E-04   495   0.460E-02    0.107E-02
RMM:   4    -0.138577626647E+03   -0.18963E-04   -0.16778E-04   547   0.229E-02    0.514E-03
RMM:   5    -0.138577630074E+03   -0.34271E-05   -0.22571E-05   558   0.818E-03    0.155E-03
RMM:   6    -0.138577630438E+03   -0.36390E-06   -0.32418E-06   555   0.316E-03    0.721E-04
RMM:   7    -0.138577630568E+03   -0.12965E-06   -0.50968E-07   544   0.127E-03    0.251E-04
RMM:   8    -0.138577630637E+03   -0.69518E-07   -0.11751E-07   492   0.617E-04    0.113E-04
RMM:   9    -0.138577630652E+03   -0.14893E-07   -0.37857E-08   385   0.359E-04    0.874E-05
RMM:  10    -0.138577630666E+03   -0.14531E-07   -0.19126E-08   357   0.217E-04    0.890E-05
RMM:  11    -0.138577630667E+03   -0.82969E-09   -0.57558E-09   335   0.166E-04
  18 F= -.13857763E+03 E0= -.13841584E+03  d E =-.114294E-01
       N       E                     dE             d eps       ncg     rms          rms(c)
DAV:   1    -0.138572364075E+03    0.52666E-02   -0.73957E-01   448   0.194E+00    0.967E-02
RMM:   2    -0.138572170242E+03    0.19383E-03   -0.10764E-02   448   0.221E-01    0.511E-02
RMM:   3    -0.138572187227E+03   -0.16985E-04   -0.25314E-03   495   0.916E-02    0.214E-02
RMM:   4    -0.138572261729E+03   -0.74502E-04   -0.65944E-04   551   0.452E-02    0.102E-02
RMM:   5    -0.138572274922E+03   -0.13194E-04   -0.83506E-05   556   0.158E-02    0.307E-03
RMM:   6    -0.138572276341E+03   -0.14181E-05   -0.12621E-05   555   0.624E-03    0.146E-03
RMM:   7    -0.138572276886E+03   -0.54498E-06   -0.20283E-06   538   0.254E-03    0.479E-04
RMM:   8    -0.138572277137E+03   -0.25161E-06   -0.48894E-07   518   0.125E-03    0.212E-04
RMM:   9    -0.138572277197E+03   -0.60038E-07   -0.16075E-07   508   0.682E-04    0.176E-04
RMM:  10    -0.138572277243E+03   -0.45538E-07   -0.57702E-08   399   0.333E-04    0.168E-04
RMM:  11    -0.138572277242E+03    0.88949E-09   -0.14903E-08   348   0.245E-04
  19 F= -.13857228E+03 E0= -.13840979E+03  d E =-.607597E-02
       N       E                     dE             d eps       ncg     rms          rms(c)
DAV:   1    -0.138578494796E+03   -0.62176E-02   -0.36585E-01   448   0.136E+00    0.684E-02
RMM:   2    -0.138578383964E+03    0.11083E-03   -0.53104E-03   448   0.154E-01    0.360E-02
RMM:   3    -0.138578395573E+03   -0.11609E-04   -0.13115E-03   497   0.654E-02    0.151E-02
RMM:   4    -0.138578432999E+03   -0.37426E-04   -0.33937E-04   555   0.324E-02    0.750E-03
RMM:   5    -0.138578440071E+03   -0.70715E-05   -0.39901E-05   556   0.109E-02    0.213E-03
RMM:   6    -0.138578440836E+03   -0.76569E-06   -0.62817E-06   554   0.440E-03    0.106E-03
RMM:   7    -0.138578441272E+03   -0.43571E-06   -0.10228E-06   539   0.181E-03    0.336E-04
RMM:   8    -0.138578441448E+03   -0.17610E-06   -0.24635E-07   513   0.892E-04    0.163E-04
RMM:   9    -0.138578441478E+03   -0.30160E-07   -0.82380E-08   448   0.499E-04    0.123E-04
RMM:  10    -0.138578441523E+03   -0.45050E-07   -0.32588E-08   369   0.258E-04    0.114E-04
RMM:  11    -0.138578441522E+03    0.12751E-08   -0.93868E-09   343   0.201E-04
  20 F= -.13857844E+03 E0= -.13841644E+03  d E =-.122403E-01
       N       E                     dE             d eps       ncg     rms          rms(c)
DAV:   1    -0.138582613010E+03   -0.41715E-02   -0.17053E-01   448   0.936E-01    0.417E-02
RMM:   2    -0.138582655226E+03   -0.42216E-04   -0.22438E-03   448   0.104E-01    0.230E-02
RMM:   3    -0.138582684872E+03   -0.29645E-04   -0.59795E-04   501   0.447E-02    0.991E-03
RMM:   4    -0.138582704256E+03   -0.19384E-04   -0.14233E-04   556   0.216E-02    0.510E-03
RMM:   5    -0.138582706949E+03   -0.26934E-05   -0.15398E-05   546   0.699E-03    0.975E-04
RMM:   6    -0.138582707204E+03   -0.25471E-06   -0.31951E-06   564   0.312E-03    0.785E-04
RMM:   7    -0.138582707174E+03    0.29532E-07   -0.33664E-07   508   0.104E-03    0.229E-04
RMM:   8    -0.138582707170E+03    0.47565E-08   -0.11299E-07   481   0.607E-04    0.160E-04
RMM:   9    -0.138582707132E+03    0.37738E-07   -0.35512E-08   383   0.311E-04    0.199E-04
RMM:  10    -0.138582707159E+03   -0.27201E-07   -0.22744E-08   367   0.251E-04    0.107E-04
RMM:  11    -0.138582707212E+03   -0.52627E-07   -0.15117E-08   357   0.187E-04    0.784E-05
RMM:  12    -0.138582707307E+03   -0.95243E-07   -0.23496E-08   357   0.199E-04    0.870E-05
RMM:  13    -0.138582707342E+03   -0.34890E-07   -0.17237E-08   346   0.185E-04    0.356E-05
RMM:  14    -0.138582707350E+03   -0.81981E-08   -0.40197E-09   317   0.119E-04
  21 F= -.13858271E+03 E0= -.13842061E+03  d E =-.426583E-02
       N       E                     dE             d eps       ncg     rms          rms(c)
DAV:   1    -0.138582979468E+03   -0.27213E-03   -0.25907E-02   448   0.365E-01    0.162E-02
RMM:   2    -0.138582986845E+03   -0.73774E-05   -0.34303E-04   448   0.405E-02    0.896E-03
RMM:   3    -0.138582991957E+03   -0.51111E-05   -0.91671E-05   501   0.175E-02    0.387E-03
RMM:   4    -0.138582995163E+03   -0.32061E-05   -0.21936E-05   556   0.846E-03    0.199E-03
RMM:   5    -0.138582995577E+03   -0.41441E-06   -0.23592E-06   546   0.274E-03    0.379E-04
RMM:   6    -0.138582995604E+03   -0.26408E-07   -0.48738E-07   562   0.122E-03    0.306E-04
RMM:   7    -0.138582995581E+03    0.22504E-07   -0.49871E-08   433   0.407E-04    0.925E-05
RMM:   8    -0.138582995580E+03    0.14650E-08   -0.12814E-08   349   0.245E-04
  22 F= -.13858300E+03 E0= -.13842087E+03  d E =-.455406E-02
       N       E                     dE             d eps       ncg     rms          rms(c)
DAV:   1    -0.138587316729E+03   -0.43211E-02   -0.86047E-02   448   0.651E-01    0.271E-02
RMM:   2    -0.138587340269E+03   -0.23540E-04   -0.86775E-04   448   0.657E-02    0.152E-02
RMM:   3    -0.138587351208E+03   -0.10939E-04   -0.24534E-04   489   0.285E-02    0.513E-03
RMM:   4    -0.138587358709E+03   -0.75013E-05   -0.53930E-05   546   0.137E-02    0.272E-03
RMM:   5    -0.138587359671E+03   -0.96159E-06   -0.74799E-06   541   0.480E-03    0.872E-04
RMM:   6    -0.138587359734E+03   -0.63052E-07   -0.14970E-06   550   0.211E-03    0.652E-04
RMM:   7    -0.138587359568E+03    0.16541E-06   -0.25928E-07   488   0.877E-04    0.299E-04
RMM:   8    -0.138587359653E+03   -0.84228E-07   -0.87033E-08   463   0.522E-04    0.240E-04
RMM:   9    -0.138587360040E+03   -0.38703E-06   -0.12388E-07   424   0.371E-04    0.261E-04
RMM:  10    -0.138587360443E+03   -0.40369E-06   -0.80178E-08   405   0.360E-04    0.124E-04
RMM:  11    -0.138587360637E+03   -0.19377E-06   -0.44604E-08   364   0.307E-04    0.852E-05
RMM:  12    -0.138587360751E+03   -0.11384E-06   -0.51656E-08   370   0.307E-04    0.637E-05
RMM:  13    -0.138587360757E+03   -0.57837E-08   -0.54122E-09   334   0.153E-04
  23 F= -.13858736E+03 E0= -.13842562E+03  d E =-.436518E-02
       N       E                     dE             d eps       ncg     rms          rms(c)
DAV:   1    -0.138588359605E+03   -0.99885E-03   -0.71698E-02   448   0.594E-01    0.248E-02
RMM:   2    -0.138588379323E+03   -0.19718E-04   -0.72306E-04   448   0.600E-02    0.139E-02
RMM:   3    -0.138588388555E+03   -0.92321E-05   -0.20297E-04   487   0.260E-02    0.469E-03
RMM:   4    -0.138588395078E+03   -0.65226E-05   -0.46361E-05   544   0.127E-02    0.247E-03
RMM:   5    -0.138588395914E+03   -0.83578E-06   -0.64468E-06   540   0.448E-03    0.786E-04
RMM:   6    -0.138588395979E+03   -0.65311E-07   -0.13587E-06   549   0.199E-03    0.588E-04
RMM:   7    -0.138588395817E+03    0.16231E-06   -0.23581E-07   491   0.834E-04    0.248E-04
RMM:   8    -0.138588395870E+03   -0.53508E-07   -0.73236E-08   455   0.484E-04    0.193E-04
RMM:   9    -0.138588396083E+03   -0.21255E-06   -0.82260E-08   417   0.320E-04    0.233E-04
RMM:  10    -0.138588396386E+03   -0.30376E-06   -0.56017E-08   394   0.305E-04    0.110E-04
RMM:  11    -0.138588396535E+03   -0.14874E-06   -0.32575E-08   364   0.259E-04    0.759E-05
RMM:  12    -0.138588396629E+03   -0.93665E-07   -0.43030E-08   372   0.272E-04    0.565E-05
RMM:  13    -0.138588396634E+03   -0.49901E-08   -0.41946E-09   327   0.137E-04
  24 F= -.13858840E+03 E0= -.13842698E+03  d E =-.540105E-02
       N       E                     dE             d eps       ncg     rms          rms(c)
DAV:   1    -0.138588503303E+03   -0.10667E-03   -0.38152E-03   464   0.137E-01    0.573E-03
RMM:   2    -0.138588503717E+03   -0.41415E-06   -0.38474E-05   448   0.138E-02    0.322E-03
RMM:   3    -0.138588503567E+03    0.14955E-06   -0.10786E-05   487   0.599E-03    0.108E-03
RMM:   4    -0.138588503719E+03   -0.15202E-06   -0.24519E-06   544   0.292E-03    0.570E-04
RMM:   5    -0.138588503745E+03   -0.25758E-07   -0.35572E-07   538   0.104E-03    0.184E-04
RMM:   6    -0.138588503748E+03   -0.24633E-08   -0.67377E-08   458   0.458E-04
  25 F= -.13858850E+03 E0= -.13842701E+03  d E =-.550817E-02
       N       E                     dE             d eps       ncg     rms          rms(c)
DAV:   1    -0.138591490945E+03   -0.29872E-02   -0.70664E-02   448   0.598E-01    0.235E-02
RMM:   2    -0.138591504063E+03   -0.13118E-04   -0.56201E-04   448   0.535E-02    0.135E-02
RMM:   3    -0.138591515948E+03   -0.11885E-04   -0.16037E-04   497   0.239E-02    0.595E-03
RMM:   4    -0.138591522394E+03   -0.64460E-05   -0.39189E-05   544   0.116E-02    0.213E-03
RMM:   5    -0.138591523217E+03   -0.82296E-06   -0.64260E-06   562   0.414E-03    0.840E-04
RMM:   6    -0.138591523242E+03   -0.25368E-07   -0.87125E-07   552   0.164E-03    0.412E-04
RMM:   7    -0.138591523205E+03    0.37615E-07   -0.14243E-07   510   0.682E-04    0.144E-04
RMM:   8    -0.138591523205E+03   -0.34674E-10   -0.41151E-08   404   0.368E-04
  26 F= -.13859152E+03 E0= -.13843016E+03  d E =-.301946E-02
       N       E                     dE             d eps       ncg     rms          rms(c)
DAV:   1    -0.138590910704E+03    0.61250E-03   -0.21012E-01   448   0.103E+00    0.406E-02
RMM:   2    -0.138590951800E+03   -0.41096E-04   -0.16891E-03   448   0.927E-02    0.234E-02
RMM:   3    -0.138590986039E+03   -0.34239E-04   -0.47727E-04   497   0.412E-02    0.103E-02
RMM:   4    -0.138591004332E+03   -0.18292E-04   -0.11728E-04   547   0.200E-02    0.371E-03
RMM:   5    -0.138591006501E+03   -0.21693E-05   -0.18214E-05   562   0.697E-03    0.147E-03
RMM:   6    -0.138591006536E+03   -0.35439E-07   -0.25315E-06   553   0.279E-03    0.746E-04
RMM:   7    -0.138591006407E+03    0.12899E-06   -0.42291E-07   532   0.116E-03    0.303E-04
RMM:   8    -0.138591006430E+03   -0.22821E-07   -0.12848E-07   500   0.622E-04    0.237E-04
RMM:   9    -0.138591006475E+03   -0.45319E-07   -0.85105E-08   432   0.371E-04    0.342E-04
RMM:  10    -0.138591006776E+03   -0.30028E-06   -0.41530E-08   383   0.297E-04    0.141E-04
RMM:  11    -0.138591007030E+03   -0.25389E-06   -0.60243E-08   392   0.284E-04    0.151E-04
RMM:  12    -0.138591007323E+03   -0.29296E-06   -0.11281E-07   400   0.364E-04    0.115E-04
RMM:  13    -0.138591007354E+03   -0.31555E-07   -0.16016E-08   364   0.216E-04    0.565E-05
RMM:  14    -0.138591007367E+03   -0.12428E-07   -0.53230E-09   338   0.137E-04    0.247E-05
RMM:  15    -0.138591007367E+03    0.71395E-10   -0.87807E-10   274   0.696E-05
  27 F= -.13859101E+03 E0= -.13842988E+03  d E =-.250362E-02
       N       E                     dE             d eps       ncg     rms          rms(c)
DAV:   1    -0.138592455860E+03   -0.14485E-02   -0.57145E-02   448   0.537E-01    0.211E-02
RMM:   2    -0.138592464467E+03   -0.86067E-05   -0.45618E-04   448   0.481E-02    0.122E-02
RMM:   3    -0.138592472013E+03   -0.75463E-05   -0.13020E-04   497   0.215E-02    0.535E-03
RMM:   4    -0.138592476126E+03   -0.41129E-05   -0.32018E-05   548   0.105E-02    0.192E-03
RMM:   5    -0.138592476762E+03   -0.63599E-06   -0.49463E-06   557   0.364E-03    0.760E-04
RMM:   6    -0.138592476853E+03   -0.91482E-07   -0.70779E-07   555   0.148E-03    0.387E-04
RMM:   7    -0.138592476884E+03   -0.31152E-07   -0.11248E-07   492   0.605E-04    0.145E-04
RMM:   8    -0.138592476875E+03    0.92347E-08   -0.31927E-08   387   0.334E-04
  28 F= -.13859248E+03 E0= -.13843123E+03  d E =-.397313E-02
       N       E                     dE             d eps       ncg     rms          rms(c)
DAV:   1    -0.138594512892E+03   -0.20360E-02   -0.79232E-02   448   0.630E-01    0.290E-02
RMM:   2    -0.138594493782E+03    0.19111E-04   -0.84541E-04   448   0.642E-02    0.157E-02
RMM:   3    -0.138594498463E+03   -0.46812E-05   -0.23908E-04   499   0.280E-02    0.620E-03
RMM:   4    -0.138594506201E+03   -0.77380E-05   -0.56847E-05   547   0.137E-02    0.289E-03
RMM:   5    -0.138594507593E+03   -0.13924E-05   -0.74401E-06   561   0.462E-03    0.102E-03
RMM:   6    -0.138594507881E+03   -0.28825E-06   -0.11569E-06   556   0.190E-03    0.472E-04
RMM:   7    -0.138594508038E+03   -0.15612E-06   -0.18204E-07   518   0.754E-04    0.168E-04
RMM:   8    -0.138594508123E+03   -0.85797E-07   -0.59536E-08   427   0.436E-04    0.927E-05
RMM:   9    -0.138594508190E+03   -0.66660E-07   -0.22005E-08   358   0.259E-04    0.613E-05
RMM:  10    -0.138594508231E+03   -0.41249E-07   -0.17185E-08   352   0.225E-04    0.303E-05
RMM:  11    -0.138594508237E+03   -0.60793E-08   -0.62462E-09   342   0.156E-04
  29 F= -.13859451E+03 E0= -.13843305E+03  d E =-.203136E-02
       N       E                     dE             d eps       ncg     rms          rms(c)
DAV:   1    -0.138594301566E+03    0.20667E-03   -0.29093E-02   448   0.382E-01    0.176E-02
RMM:   2    -0.138594295280E+03    0.62856E-05   -0.31235E-04   448   0.390E-02    0.949E-03
RMM:   3    -0.138594297255E+03   -0.19752E-05   -0.88380E-05   499   0.170E-02    0.375E-03
RMM:   4    -0.138594300137E+03   -0.28822E-05   -0.20760E-05   541   0.834E-03    0.174E-03
RMM:   5    -0.138594300640E+03   -0.50225E-06   -0.30635E-06   562   0.294E-03    0.607E-04
RMM:   6    -0.138594300718E+03   -0.78222E-07   -0.44378E-07   559   0.118E-03    0.280E-04
RMM:   7    -0.138594300749E+03   -0.31116E-07   -0.61342E-08   446   0.452E-04    0.976E-05
RMM:   8    -0.138594300769E+03   -0.19875E-07   -0.17026E-08   351   0.266E-04    0.551E-05
RMM:   9    -0.138594300784E+03   -0.15451E-07   -0.92983E-09   342   0.196E-04    0.354E-05
RMM:  10    -0.138594300793E+03   -0.84120E-08   -0.59308E-09   342   0.155E-04
  30 F= -.13859430E+03 E0= -.13843273E+03  d E =-.182392E-02
       N       E                     dE             d eps       ncg     rms          rms(c)
DAV:   1    -0.138594619931E+03   -0.31915E-03   -0.12080E-02   448   0.246E-01    0.113E-02
RMM:   2    -0.138594616392E+03    0.35394E-05   -0.12919E-04   448   0.251E-02    0.612E-03
RMM:   3    -0.138594616780E+03   -0.38815E-06   -0.36622E-05   500   0.109E-02    0.242E-03
RMM:   4    -0.138594617818E+03   -0.10377E-05   -0.86627E-06   546   0.533E-03    0.113E-03
RMM:   5    -0.138594618041E+03   -0.22345E-06   -0.11214E-06   561   0.180E-03    0.399E-04
RMM:   6    -0.138594618087E+03   -0.45348E-07   -0.16997E-07   539   0.733E-04    0.178E-04
RMM:   7    -0.138594618113E+03   -0.26020E-07   -0.22518E-08   356   0.295E-04    0.616E-05
RMM:   8    -0.138594618118E+03   -0.49479E-08   -0.81449E-09   335   0.202E-04
  31 F= -.13859462E+03 E0= -.13843312E+03  d E =-.214124E-02
       N       E                     dE             d eps       ncg     rms          rms(c)
DAV:   1    -0.138596088985E+03   -0.14709E-02   -0.68017E-02   448   0.582E-01    0.299E-02
RMM:   2    -0.138596051274E+03    0.37712E-04   -0.82484E-04   448   0.620E-02    0.159E-02
RMM:   3    -0.138596048743E+03    0.25307E-05   -0.24422E-04   492   0.275E-02    0.585E-03
RMM:   4    -0.138596056359E+03   -0.76164E-05   -0.60572E-05   534   0.140E-02    0.282E-03
RMM:   5    -0.138596058029E+03   -0.16701E-05   -0.10238E-05   563   0.536E-03    0.115E-03
RMM:   6    -0.138596058355E+03   -0.32526E-06   -0.14355E-06   548   0.212E-03    0.460E-04
RMM:   7    -0.138596058448E+03   -0.93360E-07   -0.27724E-07   525   0.916E-04    0.202E-04
RMM:   8    -0.138596058518E+03   -0.69657E-07   -0.86486E-08   460   0.517E-04    0.976E-05
RMM:   9    -0.138596058540E+03   -0.22000E-07   -0.32552E-08   375   0.328E-04    0.658E-05
RMM:  10    -0.138596058559E+03   -0.19656E-07   -0.16339E-08   353   0.211E-04    0.413E-05
RMM:  11    -0.138596058567E+03   -0.77764E-08   -0.50824E-09   337   0.158E-04
  32 F= -.13859606E+03 E0= -.13843436E+03  d E =-.144045E-02
       N       E                     dE             d eps       ncg     rms          rms(c)
DAV:   1    -0.138596081847E+03   -0.23288E-04   -0.90836E-04   448   0.672E-02    0.347E-03
RMM:   2    -0.138596081101E+03    0.74598E-06   -0.11002E-05   448   0.716E-03    0.185E-03
RMM:   3    -0.138596080936E+03    0.16506E-06   -0.32321E-06   492   0.315E-03    0.672E-04
RMM:   4    -0.138596080994E+03   -0.57553E-07   -0.79406E-07   534   0.160E-03    0.327E-04
RMM:   5    -0.138596081026E+03   -0.32202E-07   -0.13160E-07   501   0.613E-04    0.131E-04
RMM:   6    -0.138596081034E+03   -0.78329E-08   -0.15057E-08   342   0.247E-04
  33 F= -.13859608E+03 E0= -.13843441E+03  d E =-.146292E-02
       N       E                     dE             d eps       ncg     rms          rms(c)
DAV:   1    -0.138597497916E+03   -0.14169E-02   -0.42604E-02   448   0.462E-01    0.212E-02
RMM:   2    -0.138597493125E+03    0.47906E-05   -0.46160E-04   448   0.477E-02    0.117E-02
RMM:   3    -0.138597497326E+03   -0.42002E-05   -0.13153E-04   504   0.210E-02    0.500E-03
RMM:   4    -0.138597501479E+03   -0.41531E-05   -0.31717E-05   540   0.102E-02    0.190E-03
RMM:   5    -0.138597502168E+03   -0.68881E-06   -0.54684E-06   564   0.374E-03    0.915E-04
RMM:   6    -0.138597502217E+03   -0.49257E-07   -0.72538E-07   544   0.149E-03    0.316E-04
RMM:   7    -0.138597502208E+03    0.92148E-08   -0.13230E-07   512   0.632E-04    0.161E-04
RMM:   8    -0.138597502197E+03    0.10997E-07   -0.27726E-08   379   0.304E-04    0.904E-05
RMM:   9    -0.138597502203E+03   -0.61852E-08   -0.11121E-08   344   0.210E-04
  34 F= -.13859750E+03 E0= -.13843582E+03  d E =-.142117E-02
