 vasp.6.2.1 16May21 (build Dec 23 2021 00:35:04) complex                        
  
 executed on             LinuxIFC date 2023.03.28  00:16:18
 running on  120 total cores
 distrk:  each k-point on  120 cores,    1 groups
 distr:  one band on NCORE=  15 cores,    8 groups


--------------------------------------------------------------------------------------------------------


 INCAR:
   AMIN = 0.010000
   ENCUT = 400.000000
   KSPACING = 0.500000
   SIGMA = 0.100000
   EDIFF = 1.00e-08
   EDIFFG = -1.00e-02
   ALGO = Fast
   GGA = PE
   PREC = Normal
   IBRION = 2
   IDIPOL = 3
   ISIF = 2
   ISMEAR = 0
   ISPIN = 0
   ISYM = 0
   LMAXMIX = 6
   NELM = 150
   NPAR = 8
   NSW = 800
   NWRITE = 1
   DIPOL = 0.4444 0.4167 0.5000
   KGAMMA = .TRUE.
   LASPH = .TRUE.
   LCHARG = .FALSE.
   LDIPOL = .TRUE.
   LWAVE = .FALSE.
   LREAL = AUTO

 POTCAR:    PAW_PBE Na 08Apr2002                  
 POTCAR:    PAW_PBE Na 08Apr2002                  
  local pseudopotential read in
  partial core-charges read in
  partial kinetic energy density read in
  atomic valenz-charges read in
  non local Contribution for L=           0  read in
    real space projection operators read in
  non local Contribution for L=           0  read in
    real space projection operators read in
  non local Contribution for L=           1  read in
    real space projection operators read in
    PAW grid and wavefunctions read in
 
   number of l-projection  operators is LMAX  =           3
   number of lm-projection operators is LMMAX =           5
 
 Optimization of the real space projectors (new method)

 maximal supplied QI-value         = 17.01
 optimisation between [QCUT,QGAM] = [ 10.20, 20.41] = [ 29.16,116.64] Ry 
 Optimized for a Real-space Cutoff    1.19 Angstroem

   l    n(q)    QCUT    max X(q) W(low)/X(q) W(high)/X(q)  e(spline) 
   0      7    10.205    45.123    0.22E-03    0.82E-03    0.11E-06
   0      7    10.205    12.364    0.17E-03    0.61E-03    0.75E-07
   1      7    10.205     8.302    0.37E-03    0.15E-03    0.27E-07
  PAW_PBE Na 08Apr2002                  :
 energy of atom  1       EATOM=   -5.1581
 kinetic energy error for atom=    0.0001 (will be added to EATOM!!)
 
 
 POSCAR: Na
  positions in cartesian coordinates
  No initial velocities read in
 exchange correlation table for  LEXCH =        8
   RHO(1)=    0.500       N(1)  =     2000
   RHO(2)=  100.500       N(2)  =     4000
 


--------------------------------------------------------------------------------------------------------


 ion  position               nearest neighbor table
   1  0.000  0.000  0.231-  62 3.63  38 3.63  86 3.63  64 3.63   2 3.63  40 3.63  88 3.63   4 3.63
                            73 4.20  85 4.20  37 4.20  13 4.20   3 4.20
   2  0.000  0.167  0.171-  25 3.63  13 3.63  73 3.63   1 3.63   4 4.20  74 4.20  14 4.20  38 4.20
                            86 4.20
   3  0.000  0.000  0.350-  64 3.63  66 3.63  40 3.63  88 3.63  42 3.63  90 3.63   4 3.63   6 3.63
                             5 4.20  75 4.20  87 4.20  39 4.20  15 4.20   1 4.20
   4  0.000  0.167  0.291-  27 3.63  15 3.63  75 3.63  25 3.63   3 3.63  73 3.63  13 3.63   1 3.63
                             2 4.20   6 4.20  76 4.20  40 4.20  16 4.20  88 4.20
   5  0.000  0.000  0.470-  66 3.63  68 3.63  42 3.63  90 3.63  44 3.63  92 3.63   6 3.63   8 3.63
                             3 4.20   7 4.20  77 4.20  89 4.20  41 4.20  17 4.20
   6  0.000  0.167  0.410-  29 3.63  27 3.63  17 3.63  77 3.63  75 3.63  15 3.63   5 3.63   3 3.63
                             4 4.20   8 4.20  78 4.20  42 4.20  18 4.20  90 4.20
   7  0.000  0.000  0.590-  68 3.63  70 3.63  44 3.63  92 3.63  46 3.63  94 3.63   8 3.63  10 3.63
                             9 4.20   5 4.20  79 4.20  91 4.20  43 4.20  19 4.20
   8  0.000  0.167  0.530-  31 3.63  29 3.63  19 3.63  79 3.63  77 3.63  17 3.63   7 3.63   5 3.63
                             6 4.20  10 4.20  80 4.20  44 4.20  20 4.20  92 4.20
   9  0.000  0.000  0.709-  70 3.63  46 3.63  94 3.63  72 3.63  10 3.63  48 3.63  96 3.63  12 3.63
                            11 4.20   7 4.20  81 4.20  93 4.20  45 4.20  21 4.20
  10  0.000  0.167  0.650-  33 3.63  31 3.63  21 3.63  81 3.63  79 3.63  19 3.63   9 3.63   7 3.63
                             8 4.20  82 4.20  46 4.20  22 4.20  94 4.20  12 4.20
  11  0.000  0.000  0.829-  72 3.63  48 3.63  96 3.63  12 3.63   9 4.20  83 4.20  23 4.20  95 4.20
                            47 4.20
  12  0.000  0.167  0.769-  35 3.63  23 3.63  83 3.63  33 3.63  11 3.63  81 3.63  21 3.63   9 3.63
                            84 4.20  48 4.20  24 4.20  96 4.20  10 4.20
  13  0.333  0.000  0.231-  86 3.63  98 3.63   2 3.63  88 3.63  14 3.63 100 3.63   4 3.63  16 3.63
                            37 4.20  25 4.20   1 4.20  97 4.20  15 4.20
  14  0.333  0.167  0.171-  49 3.63  37 3.63  25 3.63  13 3.63  16 4.20  38 4.20  26 4.20   2 4.20
                            98 4.20
  15  0.333  0.000  0.350-  88 3.63  90 3.63 100 3.63   4 3.63 102 3.63   6 3.63  16 3.63  18 3.63
                            17 4.20  39 4.20  27 4.20   3 4.20  99 4.20  13 4.20
  16  0.333  0.167  0.291-  51 3.63  39 3.63  27 3.63  49 3.63  15 3.63  37 3.63  25 3.63  13 3.63
                            14 4.20  18 4.20  40 4.20  28 4.20   4 4.20 100 4.20
  17  0.333  0.000  0.470-  90 3.63  92 3.63 102 3.63   6 3.63 104 3.63   8 3.63  18 3.63  20 3.63
                            15 4.20  19 4.20  41 4.20  29 4.20   5 4.20 101 4.20
  18  0.333  0.167  0.410-  53 3.63  51 3.63  41 3.63  29 3.63  39 3.63  27 3.63  17 3.63  15 3.63
                            16 4.20  20 4.20  42 4.20  30 4.20   6 4.20 102 4.20
  19  0.333  0.000  0.590-  92 3.63  94 3.63 104 3.63   8 3.63 106 3.63  10 3.63  20 3.63  22 3.63
                            21 4.20  17 4.20  43 4.20  31 4.20   7 4.20 103 4.20
  20  0.333  0.167  0.530-  55 3.63  53 3.63  43 3.63  31 3.63  41 3.63  29 3.63  19 3.63  17 3.63
                            18 4.20  22 4.20  44 4.20  32 4.20   8 4.20 104 4.20
  21  0.333  0.000  0.709-  94 3.63 106 3.63  10 3.63  96 3.63  22 3.63 108 3.63  12 3.63  24 3.63
                            23 4.20  19 4.20  45 4.20  33 4.20   9 4.20 105 4.20
  22  0.333  0.167  0.650-  57 3.63  55 3.63  45 3.63  33 3.63  43 3.63  31 3.63  21 3.63  19 3.63
                            20 4.20  46 4.20  34 4.20  10 4.20 106 4.20  24 4.20
  23  0.333  0.000  0.829-  96 3.63 108 3.63  12 3.63  24 3.63  21 4.20  47 4.20  35 4.20 107 4.20
                            11 4.20
  24  0.333  0.167  0.769-  59 3.63  47 3.63  35 3.63  57 3.63  23 3.63  45 3.63  33 3.63  21 3.63
                            48 4.20  36 4.20  12 4.20 108 4.20  22 4.20
  25  0.000  0.333  0.231-   2 3.63  14 3.63  74 3.63   4 3.63  26 3.63  16 3.63  76 3.63  28 3.63
                            13 4.20  49 4.20  73 4.20  97 4.20  27 4.20
  26  0.000  0.500  0.171-  61 3.63  49 3.63  97 3.63  25 3.63  28 4.20  14 4.20  74 4.20  50 4.20
                            98 4.20
  27  0.000  0.333  0.350-   4 3.63   6 3.63  16 3.63  76 3.63  18 3.63  78 3.63  28 3.63  30 3.63
                            29 4.20  15 4.20  51 4.20  75 4.20  99 4.20  25 4.20
  28  0.000  0.500  0.291-  63 3.63  51 3.63  99 3.63  61 3.63  27 3.63  97 3.63  49 3.63  25 3.63
                            26 4.20  30 4.20  16 4.20  52 4.20  76 4.20 100 4.20
  29  0.000  0.333  0.470-   6 3.63   8 3.63  18 3.63  78 3.63  20 3.63  80 3.63  30 3.63  32 3.63
                            27 4.20  31 4.20  17 4.20  53 4.20  77 4.20 101 4.20
  30  0.000  0.500  0.410-  65 3.63  63 3.63  53 3.63 101 3.63  99 3.63  51 3.63  29 3.63  27 3.63
                            28 4.20  32 4.20  18 4.20  54 4.20  78 4.20 102 4.20
  31  0.000  0.333  0.590-   8 3.63  10 3.63  20 3.63  80 3.63  22 3.63  82 3.63  32 3.63  34 3.63
                            33 4.20  29 4.20  19 4.20  55 4.20  79 4.20 103 4.20
  32  0.000  0.500  0.530-  67 3.63  65 3.63  55 3.63 103 3.63 101 3.63  53 3.63  31 3.63  29 3.63
                            30 4.20  34 4.20  20 4.20  56 4.20  80 4.20 104 4.20
  33  0.000  0.333  0.709-  10 3.63  22 3.63  82 3.63  12 3.63  34 3.63  24 3.63  84 3.63  36 3.63
                            35 4.20  31 4.20  21 4.20  57 4.20  81 4.20 105 4.20
  34  0.000  0.500  0.650-  69 3.63  67 3.63  57 3.63 105 3.63 103 3.63  55 3.63  33 3.63  31 3.63
                            32 4.20  22 4.20  58 4.20  82 4.20 106 4.20  36 4.20
  35  0.000  0.333  0.829-  12 3.63  24 3.63  84 3.63  36 3.63  33 4.20  23 4.20  83 4.20  59 4.20
                           107 4.20
  36  0.000  0.500  0.769-  71 3.63  59 3.63 107 3.63  69 3.63  35 3.63 105 3.63  57 3.63  33 3.63
                            24 4.20  60 4.20  84 4.20 108 4.20  34 4.20
  37  0.667  0.000  0.231-  98 3.63  14 3.63  62 3.63 100 3.63  38 3.63  16 3.63  64 3.63  40 3.63
                            13 4.20  49 4.20   1 4.20  61 4.20  39 4.20
  38  0.667  0.167  0.171-  73 3.63  49 3.63   1 3.63  37 3.63  40 4.20  50 4.20  14 4.20  62 4.20
                             2 4.20
  39  0.667  0.000  0.350- 100 3.63 102 3.63  16 3.63  64 3.63  18 3.63  66 3.63  40 3.63  42 3.63
                            41 4.20  15 4.20  51 4.20   3 4.20  63 4.20  37 4.20
  40  0.667  0.167  0.291-  75 3.63  51 3.63   3 3.63  73 3.63  39 3.63  49 3.63   1 3.63  37 3.63
                            38 4.20  42 4.20  16 4.20  52 4.20   4 4.20  64 4.20
  41  0.667  0.000  0.470- 102 3.63 104 3.63  18 3.63  66 3.63  20 3.63  68 3.63  42 3.63  44 3.63
                            39 4.20  43 4.20  17 4.20  53 4.20   5 4.20  65 4.20
  42  0.667  0.167  0.410-  77 3.63  75 3.63  53 3.63   5 3.63  51 3.63   3 3.63  41 3.63  39 3.63
                            40 4.20  44 4.20  18 4.20  54 4.20   6 4.20  66 4.20
  43  0.667  0.000  0.590- 104 3.63 106 3.63  20 3.63  68 3.63  22 3.63  70 3.63  44 3.63  46 3.63
                            45 4.20  41 4.20  19 4.20  55 4.20   7 4.20  67 4.20
  44  0.667  0.167  0.530-  79 3.63  77 3.63  55 3.63   7 3.63  53 3.63   5 3.63  43 3.63  41 3.63
                            42 4.20  46 4.20  20 4.20  56 4.20   8 4.20  68 4.20
  45  0.667  0.000  0.709- 106 3.63  22 3.63  70 3.63 108 3.63  46 3.63  24 3.63  72 3.63  48 3.63
                            47 4.20  43 4.20  21 4.20  57 4.20   9 4.20  69 4.20
  46  0.667  0.167  0.650-  81 3.63  79 3.63  57 3.63   9 3.63  55 3.63   7 3.63  45 3.63  43 3.63
                            44 4.20  22 4.20  58 4.20  10 4.20  70 4.20  48 4.20
  47  0.667  0.000  0.829- 108 3.63  24 3.63  72 3.63  48 3.63  45 4.20  23 4.20  59 4.20  11 4.20
                            71 4.20
  48  0.667  0.167  0.769-  83 3.63  59 3.63  11 3.63  81 3.63  47 3.63  57 3.63   9 3.63  45 3.63
                            24 4.20  60 4.20  12 4.20  72 4.20  46 4.20
  49  0.333  0.333  0.231-  14 3.63  38 3.63  26 3.63  16 3.63  50 3.63  40 3.63  28 3.63  52 3.63
                            37 4.20  73 4.20  61 4.20  25 4.20  51 4.20
  50  0.333  0.500  0.171-  85 3.63  73 3.63  61 3.63  49 3.63  52 4.20  74 4.20  38 4.20  62 4.20
                            26 4.20
  51  0.333  0.333  0.350-  16 3.63  18 3.63  40 3.63  28 3.63  42 3.63  30 3.63  52 3.63  54 3.63
                            53 4.20  39 4.20  75 4.20  63 4.20  27 4.20  49 4.20
  52  0.333  0.500  0.291-  87 3.63  75 3.63  63 3.63  85 3.63  51 3.63  73 3.63  61 3.63  49 3.63
                            50 4.20  54 4.20  40 4.20  76 4.20  64 4.20  28 4.20
  53  0.333  0.333  0.470-  18 3.63  20 3.63  42 3.63  30 3.63  44 3.63  32 3.63  54 3.63  56 3.63
                            51 4.20  55 4.20  41 4.20  77 4.20  65 4.20  29 4.20
  54  0.333  0.500  0.410-  89 3.63  87 3.63  77 3.63  65 3.63  75 3.63  63 3.63  53 3.63  51 3.63
                            52 4.20  56 4.20  42 4.20  78 4.20  66 4.20  30 4.20
  55  0.333  0.333  0.590-  20 3.63  22 3.63  44 3.63  32 3.63  46 3.63  34 3.63  56 3.63  58 3.63
                            57 4.20  53 4.20  43 4.20  79 4.20  67 4.20  31 4.20
  56  0.333  0.500  0.530-  91 3.63  89 3.63  79 3.63  67 3.63  77 3.63  65 3.63  55 3.63  53 3.63
                            54 4.20  58 4.20  44 4.20  80 4.20  68 4.20  32 4.20
  57  0.333  0.333  0.709-  22 3.63  46 3.63  34 3.63  24 3.63  58 3.63  48 3.63  36 3.63  60 3.63
                            59 4.20  55 4.20  45 4.20  81 4.20  69 4.20  33 4.20
  58  0.333  0.500  0.650-  93 3.63  91 3.63  81 3.63  69 3.63  79 3.63  67 3.63  57 3.63  55 3.63
                            56 4.20  46 4.20  82 4.20  70 4.20  34 4.20  60 4.20
  59  0.333  0.333  0.829-  24 3.63  48 3.63  36 3.63  60 3.63  57 4.20  47 4.20  83 4.20  71 4.20
                            35 4.20
  60  0.333  0.500  0.769-  95 3.63  83 3.63  71 3.63  93 3.63  59 3.63  81 3.63  69 3.63  57 3.63
                            48 4.20  84 4.20  72 4.20  36 4.20  58 4.20
  61  0.000  0.667  0.231-  26 3.63  50 3.63  98 3.63  28 3.63  62 3.63  52 3.63 100 3.63  64 3.63
                            85 4.20  97 4.20  37 4.20  49 4.20  63 4.20
  62  0.000  0.833  0.171-   1 3.63  37 3.63  85 3.63  61 3.63  64 4.20  50 4.20  38 4.20  86 4.20
                            98 4.20
  63  0.000  0.667  0.350-  28 3.63  30 3.63  52 3.63 100 3.63  54 3.63 102 3.63  64 3.63  66 3.63
                            65 4.20  87 4.20  99 4.20  51 4.20  39 4.20  61 4.20
  64  0.000  0.833  0.291-   3 3.63  39 3.63  87 3.63   1 3.63  63 3.63  85 3.63  37 3.63  61 3.63
                            62 4.20  66 4.20  40 4.20  52 4.20  88 4.20 100 4.20
  65  0.000  0.667  0.470-  30 3.63  32 3.63  54 3.63 102 3.63  56 3.63 104 3.63  66 3.63  68 3.63
                            63 4.20  67 4.20  89 4.20 101 4.20  41 4.20  53 4.20
  66  0.000  0.833  0.410-   5 3.63   3 3.63  41 3.63  89 3.63  87 3.63  39 3.63  65 3.63  63 3.63
                            64 4.20  68 4.20  42 4.20  54 4.20  90 4.20 102 4.20
  67  0.000  0.667  0.590-  32 3.63  34 3.63  56 3.63 104 3.63  58 3.63 106 3.63  68 3.63  70 3.63
                            69 4.20  65 4.20  91 4.20 103 4.20  43 4.20  55 4.20
  68  0.000  0.833  0.530-   7 3.63   5 3.63  43 3.63  91 3.63  89 3.63  41 3.63  67 3.63  65 3.63
                            66 4.20  70 4.20  44 4.20  56 4.20  92 4.20 104 4.20
  69  0.000  0.667  0.709-  34 3.63  58 3.63 106 3.63  36 3.63  70 3.63  60 3.63 108 3.63  72 3.63
                            71 4.20  67 4.20  93 4.20 105 4.20  45 4.20  57 4.20
  70  0.000  0.833  0.650-   9 3.63   7 3.63  45 3.63  93 3.63  91 3.63  43 3.63  69 3.63  67 3.63
                            68 4.20  58 4.20  46 4.20  94 4.20 106 4.20  72 4.20
  71  0.000  0.667  0.829-  36 3.63  60 3.63 108 3.63  72 3.63  69 4.20  47 4.20  95 4.20 107 4.20
                            59 4.20
  72  0.000  0.833  0.769-  11 3.63  47 3.63  95 3.63   9 3.63  71 3.63  93 3.63  45 3.63  69 3.63
                            48 4.20  60 4.20  96 4.20 108 4.20  70 4.20
  73  0.667  0.333  0.231-  38 3.63  50 3.63   2 3.63  40 3.63  74 3.63  52 3.63   4 3.63  76 3.63
                            49 4.20   1 4.20  25 4.20  85 4.20  75 4.20
  74  0.667  0.500  0.171-  97 3.63  85 3.63  25 3.63  73 3.63  76 4.20  50 4.20   2 4.20  86 4.20
                            26 4.20
  75  0.667  0.333  0.350-  40 3.63  42 3.63  52 3.63   4 3.63  54 3.63   6 3.63  76 3.63  78 3.63
                            77 4.20  51 4.20   3 4.20  27 4.20  87 4.20  73 4.20
  76  0.667  0.500  0.291-  99 3.63  87 3.63  27 3.63  97 3.63  75 3.63  85 3.63  25 3.63  73 3.63
                            74 4.20  78 4.20  52 4.20   4 4.20  28 4.20  88 4.20
  77  0.667  0.333  0.470-  42 3.63  44 3.63  54 3.63   6 3.63  56 3.63   8 3.63  78 3.63  80 3.63
                            75 4.20  79 4.20  53 4.20   5 4.20  29 4.20  89 4.20
  78  0.667  0.500  0.410- 101 3.63  99 3.63  89 3.63  29 3.63  87 3.63  27 3.63  77 3.63  75 3.63
                            76 4.20  80 4.20  54 4.20   6 4.20  30 4.20  90 4.20
  79  0.667  0.333  0.590-  44 3.63  46 3.63  56 3.63   8 3.63  58 3.63  10 3.63  80 3.63  82 3.63
                            81 4.20  77 4.20  55 4.20   7 4.20  31 4.20  91 4.20
  80  0.667  0.500  0.530- 103 3.63 101 3.63  91 3.63  31 3.63  89 3.63  29 3.63  79 3.63  77 3.63
                            78 4.20  82 4.20  56 4.20   8 4.20  32 4.20  92 4.20
  81  0.667  0.333  0.709-  46 3.63  58 3.63  10 3.63  48 3.63  82 3.63  60 3.63  12 3.63  84 3.63
                            83 4.20  79 4.20  57 4.20   9 4.20  33 4.20  93 4.20
  82  0.667  0.500  0.650- 105 3.63 103 3.63  93 3.63  33 3.63  91 3.63  31 3.63  81 3.63  79 3.63
                            80 4.20  58 4.20  10 4.20  34 4.20  94 4.20  84 4.20
  83  0.667  0.333  0.829-  48 3.63  60 3.63  12 3.63  84 3.63  81 4.20  59 4.20  11 4.20  35 4.20
                            95 4.20
  84  0.667  0.500  0.769- 107 3.63  95 3.63  35 3.63 105 3.63  83 3.63  93 3.63  33 3.63  81 3.63
                            60 4.20  12 4.20  36 4.20  96 4.20  82 4.20
  85  0.333  0.667  0.231-  50 3.63  74 3.63  62 3.63  52 3.63  86 3.63  76 3.63  64 3.63  88 3.63
                            97 4.20  73 4.20   1 4.20  61 4.20  87 4.20
  86  0.333  0.833  0.171-  13 3.63  97 3.63   1 3.63  85 3.63  88 4.20  98 4.20  62 4.20  74 4.20
                             2 4.20
  87  0.333  0.667  0.350-  52 3.63  54 3.63  76 3.63  64 3.63  78 3.63  66 3.63  88 3.63  90 3.63
                            89 4.20  99 4.20   3 4.20  63 4.20  75 4.20  85 4.20
  88  0.333  0.833  0.291-  15 3.63  99 3.63   3 3.63  13 3.63  87 3.63  97 3.63   1 3.63  85 3.63
                            86 4.20  90 4.20 100 4.20  64 4.20  76 4.20   4 4.20
  89  0.333  0.667  0.470-  54 3.63  56 3.63  78 3.63  66 3.63  80 3.63  68 3.63  90 3.63  92 3.63
                            87 4.20  91 4.20 101 4.20  65 4.20  77 4.20   5 4.20
  90  0.333  0.833  0.410-  17 3.63  15 3.63 101 3.63   5 3.63  99 3.63   3 3.63  89 3.63  87 3.63
                            88 4.20  92 4.20 102 4.20  66 4.20  78 4.20   6 4.20
  91  0.333  0.667  0.590-  56 3.63  58 3.63  80 3.63  68 3.63  82 3.63  70 3.63  92 3.63  94 3.63
                            93 4.20  89 4.20 103 4.20  67 4.20  79 4.20   7 4.20
  92  0.333  0.833  0.530-  19 3.63  17 3.63 103 3.63   7 3.63 101 3.63   5 3.63  91 3.63  89 3.63
                            90 4.20  94 4.20 104 4.20  68 4.20  80 4.20   8 4.20
  93  0.333  0.667  0.709-  58 3.63  82 3.63  70 3.63  60 3.63  94 3.63  84 3.63  72 3.63  96 3.63
                            95 4.20  91 4.20 105 4.20  69 4.20  81 4.20   9 4.20
  94  0.333  0.833  0.650-  21 3.63  19 3.63 105 3.63   9 3.63 103 3.63   7 3.63  93 3.63  91 3.63
                            92 4.20 106 4.20  10 4.20  70 4.20  82 4.20  96 4.20
  95  0.333  0.667  0.829-  60 3.63  84 3.63  72 3.63  96 3.63  93 4.20 107 4.20  11 4.20  83 4.20
                            71 4.20
  96  0.333  0.833  0.769-  23 3.63 107 3.63  11 3.63  21 3.63  95 3.63 105 3.63   9 3.63  93 3.63
                           108 4.20  84 4.20  12 4.20  72 4.20  94 4.20
  97  0.667  0.667  0.231-  74 3.63  86 3.63  26 3.63  76 3.63  98 3.63  88 3.63  28 3.63 100 3.63
                            85 4.20  25 4.20  61 4.20  13 4.20  99 4.20
  98  0.667  0.833  0.171-  37 3.63  13 3.63  61 3.63  97 3.63 100 4.20  86 4.20  14 4.20  26 4.20
                            62 4.20
  99  0.667  0.667  0.350-  76 3.63  78 3.63  88 3.63  28 3.63  90 3.63  30 3.63 100 3.63 102 3.63
                           101 4.20  87 4.20  63 4.20  15 4.20  27 4.20  97 4.20
 100  0.667  0.833  0.291-  39 3.63  15 3.63  63 3.63  37 3.63  99 3.63  13 3.63  61 3.63  97 3.63
                            98 4.20 102 4.20  88 4.20  64 4.20  16 4.20  28 4.20
 101  0.667  0.667  0.470-  78 3.63  80 3.63  90 3.63  30 3.63  92 3.63  32 3.63 102 3.63 104 3.63
                            99 4.20 103 4.20  89 4.20  17 4.20  29 4.20  65 4.20
 102  0.667  0.833  0.410-  41 3.63  39 3.63  17 3.63  65 3.63  15 3.63  63 3.63 101 3.63  99 3.63
                           100 4.20 104 4.20  90 4.20  66 4.20  18 4.20  30 4.20
 103  0.667  0.667  0.590-  80 3.63  82 3.63  92 3.63  32 3.63  94 3.63  34 3.63 104 3.63 106 3.63
                           105 4.20 101 4.20  91 4.20  19 4.20  31 4.20  67 4.20
 104  0.667  0.833  0.530-  43 3.63  41 3.63  19 3.63  67 3.63  17 3.63  65 3.63 103 3.63 101 3.63
                           102 4.20 106 4.20  92 4.20  68 4.20  20 4.20  32 4.20
 105  0.667  0.667  0.709-  82 3.63  94 3.63  34 3.63  84 3.63 106 3.63  96 3.63  36 3.63 108 3.63
                           107 4.20 103 4.20  93 4.20  21 4.20  33 4.20  69 4.20
 106  0.667  0.833  0.650-  45 3.63  43 3.63  21 3.63  69 3.63  19 3.63  67 3.63 105 3.63 103 3.63
                           104 4.20  94 4.20  34 4.20  70 4.20  22 4.20 108 4.20
 107  0.667  0.667  0.829-  84 3.63  96 3.63  36 3.63 108 3.63 105 4.20  95 4.20  71 4.20  35 4.20
                            23 4.20
 108  0.667  0.833  0.769-  47 3.63  23 3.63  71 3.63  45 3.63 107 3.63  21 3.63  69 3.63 105 3.63
                            96 4.20  24 4.20  36 4.20  72 4.20 106 4.20
 

IMPORTANT INFORMATION: All symmetrisations will be switched off!
NOSYMM: (Re-)initialisation of all symmetry stuff for point group C_1.


----------------------------------------------------------------------------------------

                                     Primitive cell                                     

  volume of cell :    5556.4510

  direct lattice vectors                    reciprocal lattice vectors
    -8.899897720  8.899897720  0.000000000    -0.000000000  0.112360842  0.000000000
   -17.799795441 -0.000000000  0.000000000    -0.056180421 -0.056180421  0.000000000
     0.000000000  0.000000000 35.074982212     0.000000000  0.000000000  0.028510349

  length of vectors
    12.586356060 17.799795441 35.074982212     0.112360842  0.079451113  0.028510349

  position of ions in fractional coordinates (direct lattice)
     1.000000000  0.000000033  0.230868887
     1.000000000  0.166666983  0.171062097
     1.000000000  0.000000033  0.350482699
     1.000000000  0.166666983  0.290675898
     1.000000000  0.000000033  0.470096500
     1.000000000  0.166666983  0.410289699
     1.000000000  0.000000033  0.589710301
     1.000000000  0.166666983  0.529903500
     1.000000000  0.000000033  0.709324102
     1.000000000  0.166666983  0.649517301
     1.000000000  0.000000033  0.828937903
     1.000000000  0.166666983  0.769131113
     0.333333333  0.000000033  0.230868887
     0.333333333  0.166666983  0.171062097
     0.333333333  0.000000033  0.350482699
     0.333333333  0.166666983  0.290675898
     0.333333333  0.000000033  0.470096500
     0.333333333  0.166666983  0.410289699
     0.333333333  0.000000033  0.589710301
     0.333333333  0.166666983  0.529903500
     0.333333333  0.000000033  0.709324102
     0.333333333  0.166666983  0.649517301
     0.333333333  0.000000033  0.828937903
     0.333333333  0.166666983  0.769131113
     1.000000000  0.333333367  0.230868887
     1.000000000  0.500000317  0.171062097
     1.000000000  0.333333367  0.350482699
     1.000000000  0.500000317  0.290675898
     1.000000000  0.333333367  0.470096500
     1.000000000  0.500000317  0.410289699
     1.000000000  0.333333367  0.589710301
     1.000000000  0.500000317  0.529903500
     1.000000000  0.333333367  0.709324102
     1.000000000  0.500000317  0.649517301
     1.000000000  0.333333367  0.828937903
     1.000000000  0.500000317  0.769131113
     0.666666667  0.000000033  0.230868887
     0.666666667  0.166666983  0.171062097
     0.666666667  0.000000033  0.350482699
     0.666666667  0.166666983  0.290675898
     0.666666667  0.000000033  0.470096500
     0.666666667  0.166666983  0.410289699
     0.666666667  0.000000033  0.589710301
     0.666666667  0.166666983  0.529903500
     0.666666667  0.000000033  0.709324102
     0.666666667  0.166666983  0.649517301
     0.666666667  0.000000033  0.828937903
     0.666666667  0.166666983  0.769131113
     0.333333333  0.333333367  0.230868887
     0.333333333  0.500000317  0.171062097
     0.333333333  0.333333367  0.350482699
     0.333333333  0.500000317  0.290675898
     0.333333333  0.333333367  0.470096500
     0.333333333  0.500000317  0.410289699
     0.333333333  0.333333367  0.589710301
     0.333333333  0.500000317  0.529903500
     0.333333333  0.333333367  0.709324102
     0.333333333  0.500000317  0.649517301
     0.333333333  0.333333367  0.828937903
     0.333333333  0.500000317  0.769131113
     1.000000000  0.666666700  0.230868887
     1.000000000  0.833333650  0.171062097
     1.000000000  0.666666700  0.350482699
     1.000000000  0.833333650  0.290675898
     1.000000000  0.666666700  0.470096500
     1.000000000  0.833333650  0.410289699
     1.000000000  0.666666700  0.589710301
     1.000000000  0.833333650  0.529903500
     1.000000000  0.666666700  0.709324102
     1.000000000  0.833333650  0.649517301
     1.000000000  0.666666700  0.828937903
     1.000000000  0.833333650  0.769131113
     0.666666667  0.333333367  0.230868887
     0.666666667  0.500000317  0.171062097
     0.666666667  0.333333367  0.350482699
     0.666666667  0.500000317  0.290675898
     0.666666667  0.333333367  0.470096500
     0.666666667  0.500000317  0.410289699
     0.666666667  0.333333367  0.589710301
     0.666666667  0.500000317  0.529903500
     0.666666667  0.333333367  0.709324102
     0.666666667  0.500000317  0.649517301
     0.666666667  0.333333367  0.828937903
     0.666666667  0.500000317  0.769131113
     0.333333333  0.666666700  0.230868887
     0.333333333  0.833333650  0.171062097
     0.333333333  0.666666700  0.350482699
     0.333333333  0.833333650  0.290675898
     0.333333333  0.666666700  0.470096500
     0.333333333  0.833333650  0.410289699
     0.333333333  0.666666700  0.589710301
     0.333333333  0.833333650  0.529903500
     0.333333333  0.666666700  0.709324102
     0.333333333  0.833333650  0.649517301
     0.333333333  0.666666700  0.828937903
     0.333333333  0.833333650  0.769131113
     0.666666667  0.666666700  0.230868887
     0.666666667  0.833333650  0.171062097
     0.666666667  0.666666700  0.350482699
     0.666666667  0.833333650  0.290675898
     0.666666667  0.666666700  0.470096500
     0.666666667  0.833333650  0.410289699
     0.666666667  0.666666700  0.589710301
     0.666666667  0.833333650  0.529903500
     0.666666667  0.666666700  0.709324102
     0.666666667  0.833333650  0.649517301
     0.666666667  0.666666700  0.828937903
     0.666666667  0.833333650  0.769131113

  ion indices of the primitive-cell ions
   primitive index   ion index
                 1           1
                 2           2
                 3           3
                 4           4
                 5           5
                 6           6
                 7           7
                 8           8
                 9           9
                10          10
                11          11
                12          12
                13          13
                14          14
                15          15
                16          16
                17          17
                18          18
                19          19
                20          20
                21          21
                22          22
                23          23
                24          24
                25          25
                26          26
                27          27
                28          28
                29          29
                30          30
                31          31
                32          32
                33          33
                34          34
                35          35
                36          36
                37          37
                38          38
                39          39
                40          40
                41          41
                42          42
                43          43
                44          44
                45          45
                46          46
                47          47
                48          48
                49          49
                50          50
                51          51
                52          52
                53          53
                54          54
                55          55
                56          56
                57          57
                58          58
                59          59
                60          60
                61          61
                62          62
                63          63
                64          64
                65          65
                66          66
                67          67
                68          68
                69          69
                70          70
                71          71
                72          72
                73          73
                74          74
                75          75
                76          76
                77          77
                78          78
                79          79
                80          80
                81          81
                82          82
                83          83
                84          84
                85          85
                86          86
                87          87
                88          88
                89          89
                90          90
                91          91
                92          92
                93          93
                94          94
                95          95
                96          96
                97          97
                98          98
                99          99
               100         100
               101         101
               102         102
               103         103
               104         104
               105         105
               106         106
               107         107
               108         108

----------------------------------------------------------------------------------------

 
 -----------------------------------------------------------------------------
|                                                                             |
|           W    W    AA    RRRRR   N    N  II  N    N   GGGG   !!!           |
|           W    W   A  A   R    R  NN   N  II  NN   N  G    G  !!!           |
|           W    W  A    A  R    R  N N  N  II  N N  N  G       !!!           |
|           W WW W  AAAAAA  RRRRR   N  N N  II  N  N N  G  GGG   !            |
|           WW  WW  A    A  R   R   N   NN  II  N   NN  G    G                |
|           W    W  A    A  R    R  N    N  II  N    N   GGGG   !!!           |
|                                                                             |
|     The requested file  could not be found or opened for reading            |
|     k-point information. Automatic k-point generation is used as a          |
|     fallback, which may lead to unwanted results.                           |
|                                                                             |
 -----------------------------------------------------------------------------

 

Automatic generation of k-mesh.
 Grid dimensions derived from KSPACING:
 generate k-points for:    2    1    1

 Generating k-lattice:

  Cartesian coordinates                     Fractional coordinates (reciprocal lattice)
    -0.000000000  0.056180421  0.000000000     0.500000000 -0.000000000  0.000000000
    -0.056180421 -0.056180421  0.000000000     0.000000000  1.000000000  0.000000000
     0.000000000  0.000000000  0.028510349     0.000000000  0.000000000  1.000000000

  Length of vectors
     0.056180421  0.079451113  0.028510349

  Shift w.r.t. Gamma in fractional coordinates (k-lattice)
     0.000000000  0.000000000  0.000000000

 
 Subroutine IBZKPT returns following result:
 ===========================================
 
 Found      2 irreducible k-points:
 
 Following reciprocal coordinates:
            Coordinates               Weight
  0.000000  0.000000  0.000000      1.000000
  0.500000  0.000000  0.000000      1.000000
 
 Following cartesian coordinates:
            Coordinates               Weight
  0.000000  0.000000  0.000000      1.000000
 -0.000000  0.056180  0.000000      1.000000
 


--------------------------------------------------------------------------------------------------------




 Dimension of arrays:
   k-points           NKPTS =      2   k-points in BZ     NKDIM =      2   number of bands    NBANDS=    112
   number of dos      NEDOS =    301   number of ions     NIONS =    108
   non local maximal  LDIM  =      3   non local SUM 2l+1 LMDIM =      5
   total plane-waves  NPLWV = ******
   max r-space proj   IRMAX =   1369   max aug-charges    IRDMAX=   9283
   dimension x,y,z NGX =    64 NGY =   90 NGZ =  180
   dimension x,y,z NGXF=   128 NGYF=  180 NGZF=  360
   support grid    NGXF=   128 NGYF=  180 NGZF=  360
   ions per type =             108
   NGX,Y,Z   is equivalent  to a cutoff of   8.45,  8.41,  8.53 a.u.
   NGXF,Y,Z  is equivalent  to a cutoff of  16.91, 16.81, 17.06 a.u.

 SYSTEM =  unknown system                          
 POSCAR =  Na                                      

 Startparameter for this run:
   NWRITE =      1    write-flag & timer
   PREC   = normal    normal or accurate (medium, high low for compatibility)
   ISTART =      0    job   : 0-new  1-cont  2-samecut
   ICHARG =      2    charge: 1-file 2-atom 10-const
   ISPIN  =      1    spin polarized calculation?
   LNONCOLLINEAR =      F non collinear calculations
   LSORBIT =      F    spin-orbit coupling
   INIWAV =      1    electr: 0-lowe 1-rand  2-diag
   LASPH  =      T    aspherical Exc in radial PAW
 Electronic Relaxation 1
   ENCUT  =  400.0 eV  29.40 Ry    5.42 a.u.  20.53 29.03 57.20*2*pi/ulx,y,z
   ENINI  =  400.0     initial cutoff
   ENAUG  =  250.7 eV  augmentation charge cutoff
   NELM   =    150;   NELMIN=  2; NELMDL=  0     # of ELM steps 
   EDIFF  = 0.1E-07   stopping-criterion for ELM
   LREAL  =      T    real-space projection
   NLSPLINE    = F    spline interpolate recip. space projectors
   LCOMPAT=      F    compatible to vasp.4.4
   GGA_COMPAT  = T    GGA compatible to vasp.4.4-vasp.4.6
   LMAXPAW     = -100 max onsite density
   LMAXMIX     =    6 max onsite mixed and CHGCAR
   VOSKOWN=      0    Vosko Wilk Nusair interpolation
   ROPT   =   -0.00050
 Ionic relaxation
   EDIFFG = -.1E-01   stopping-criterion for IOM
   NSW    =    800    number of steps for IOM
   NBLOCK =      1;   KBLOCK =    800    inner block; outer block 
   IBRION =      2    ionic relax: 0-MD 1-quasi-New 2-CG
   NFREE  =      1    steps in history (QN), initial steepest desc. (CG)
   ISIF   =      2    stress and relaxation
   IWAVPR =     11    prediction:  0-non 1-charg 2-wave 3-comb
   ISYM   =      0    0-nonsym 1-usesym 2-fastsym
   LCORR  =      T    Harris-Foulkes like correction to forces

   POTIM  = 0.5000    time-step for ionic-motion
   TEIN   =    0.0    initial temperature
   TEBEG  =    0.0;   TEEND  =   0.0 temperature during run
   SMASS  =  -3.00    Nose mass-parameter (am)
   estimated Nose-frequenzy (Omega)   =  0.10E-29 period in steps = 0.13E+47 mass=  -0.362E-26a.u.
   SCALEE = 1.0000    scale energy and forces
   NPACO  =    256;   APACO  = 16.0  distance and # of slots for P.C.
   PSTRESS=    0.0 pullay stress

  Mass of Ions in am
   POMASS =  22.99
  Ionic Valenz
   ZVAL   =   1.00
  Atomic Wigner-Seitz radii
   RWIGS  =  -1.00
  virtual crystal weights 
   VCA    =   1.00
   NELECT =     108.0000    total number of electrons
   NUPDOWN=      -1.0000    fix difference up-down

 DOS related values:
   EMIN   =  10.00;   EMAX   =-10.00  energy-range for DOS
   EFERMI =   0.00
   ISMEAR =     0;   SIGMA  =   0.10  broadening in eV -4-tet -1-fermi 0-gaus

 Electronic relaxation 2 (details)
   IALGO  =     68    algorithm
   LDIAG  =      T    sub-space diagonalisation (order eigenvalues)
   LSUBROT=      F    optimize rotation matrix (better conditioning)
   TURBO    =      0    0=normal 1=particle mesh
   IRESTART =      0    0=no restart 2=restart with 2 vectors
   NREBOOT  =      0    no. of reboots
   NMIN     =      0    reboot dimension
   EREF     =   0.00    reference energy to select bands
   IMIX   =      4    mixing-type and parameters
     AMIX     =   0.40;   BMIX     =  1.00
     AMIX_MAG =   1.60;   BMIX_MAG =  1.00
     AMIN     =   0.01
     WC   =   100.;   INIMIX=   1;  MIXPRE=   1;  MAXMIX= -45

 Intra band minimization:
   WEIMIN = 0.0010     energy-eigenvalue tresh-hold
   EBREAK =  0.22E-10  absolut break condition
   DEPER  =   0.30     relativ break condition  

   TIME   =   0.40     timestep for ELM

  volume/ion in A,a.u.               =      51.45       347.19
  Fermi-wavevector in a.u.,A,eV,Ry     =   0.440166  0.831794  2.636081  0.193746
  Thomas-Fermi vector in A             =   1.414693
 
 Write flags
   LWAVE        =      F    write WAVECAR
   LDOWNSAMPLE  =      F    k-point downsampling of WAVECAR
   LCHARG       =      F    write CHGCAR
   LVTOT        =      F    write LOCPOT, total local potential
   LVHAR        =      F    write LOCPOT, Hartree potential only
   LELF         =      F    write electronic localiz. function (ELF)
   LORBIT       =      0    0 simple, 1 ext, 2 COOP (PROOUT), +10 PAW based schemes


 Dipole corrections
   LMONO  =      F    monopole corrections only (constant potential shift)
   LDIPOL =      T    correct potential (dipole corrections)
   IDIPOL =      3    1-x, 2-y, 3-z, 4-all directions 
   EPSILON=  1.0000000 bulk dielectric constant

 Exchange correlation treatment:
   GGA     =    PE    GGA type
   LEXCH   =     8    internal setting for exchange type
   VOSKOWN=      0    Vosko Wilk Nusair interpolation
   LHFCALC =     F    Hartree Fock is set to
   LHFONE  =     F    Hartree Fock one center treatment
   AEXX    =    0.0000 exact exchange contribution

 Linear response parameters
   LEPSILON=     F    determine dielectric tensor
   LRPA    =     F    only Hartree local field effects (RPA)
   LNABLA  =     F    use nabla operator in PAW spheres
   LVEL    =     F    velocity operator in full k-point grid
   LINTERFAST=   F  fast interpolation
   KINTER  =     0    interpolate to denser k-point grid
   CSHIFT  =0.1000    complex shift for real part using Kramers Kronig
   OMEGAMAX=  -1.0    maximum frequency
   DEG_THRESHOLD= 0.2000000E-02 threshold for treating states as degnerate
   RTIME   =   -0.100 relaxation time in fs
  (WPLASMAI=    0.000 imaginary part of plasma frequency in eV, 0.658/RTIME)
   DFIELD  = 0.0000000 0.0000000 0.0000000 field for delta impulse in time
 
 Orbital magnetization related:
   ORBITALMAG=     F  switch on orbital magnetization
   LCHIMAG   =     F  perturbation theory with respect to B field
   DQ        =  0.001000  dq finite difference perturbation B field
   LLRAUG    =     F  two centre corrections for induced B field



--------------------------------------------------------------------------------------------------------


 conjugate gradient relaxation of ions
 charge density and potential will be updated during run
 non-spin polarized calculation
 RMM-DIIS sequential band-by-band and
  variant of blocked Davidson during initial phase
 perform sub-space diagonalisation
    before iterative eigenvector-optimisation
 modified Broyden-mixing scheme, WC =      100.0
 initial mixing is a Kerker type mixing with AMIX =  0.4000 and BMIX =      1.0000
 Hartree-type preconditioning will be used
 using additional bands           58
 real space projection scheme for non local part
 use partial core corrections
 calculate Harris-corrections to forces 
   (improved forces if not selfconsistent)
 use gradient corrections 
 use of overlap-Matrix (Vanderbilt PP)
 Gauss-broadening in eV      SIGMA  =   0.10


--------------------------------------------------------------------------------------------------------


  energy-cutoff  :      400.00
  volume of cell :     5556.45
      direct lattice vectors                 reciprocal lattice vectors
    -8.899897720  8.899897720  0.000000000    -0.000000000  0.112360842  0.000000000
   -17.799795441 -0.000000000  0.000000000    -0.056180421 -0.056180421  0.000000000
     0.000000000  0.000000000 35.074982212     0.000000000  0.000000000  0.028510349

  length of vectors
    12.586356060 17.799795441 35.074982212     0.112360842  0.079451113  0.028510349


 
 k-points in units of 2pi/SCALE and weight: read from INCAR                         
   0.00000000  0.00000000  0.00000000       0.500
  -0.00000000  0.05618042  0.00000000       0.500
 
 k-points in reciprocal lattice and weights: read from INCAR                         
   0.00000000  0.00000000  0.00000000       0.500
   0.50000000  0.00000000  0.00000000       0.500
 
 position of ions in fractional coordinates (direct lattice) 
   0.00000000  0.00000003  0.23086889
   0.00000000  0.16666698  0.17106210
   0.00000000  0.00000003  0.35048270
   0.00000000  0.16666698  0.29067590
   0.00000000  0.00000003  0.47009650
   0.00000000  0.16666698  0.41028970
   0.00000000  0.00000003  0.58971030
   0.00000000  0.16666698  0.52990350
   0.00000000  0.00000003  0.70932410
   0.00000000  0.16666698  0.64951730
   0.00000000  0.00000003  0.82893790
   0.00000000  0.16666698  0.76913111
   0.33333333  0.00000003  0.23086889
   0.33333333  0.16666698  0.17106210
   0.33333333  0.00000003  0.35048270
   0.33333333  0.16666698  0.29067590
   0.33333333  0.00000003  0.47009650
   0.33333333  0.16666698  0.41028970
   0.33333333  0.00000003  0.58971030
   0.33333333  0.16666698  0.52990350
   0.33333333  0.00000003  0.70932410
   0.33333333  0.16666698  0.64951730
   0.33333333  0.00000003  0.82893790
   0.33333333  0.16666698  0.76913111
   0.00000000  0.33333337  0.23086889
   0.00000000  0.50000032  0.17106210
   0.00000000  0.33333337  0.35048270
   0.00000000  0.50000032  0.29067590
   0.00000000  0.33333337  0.47009650
   0.00000000  0.50000032  0.41028970
   0.00000000  0.33333337  0.58971030
   0.00000000  0.50000032  0.52990350
   0.00000000  0.33333337  0.70932410
   0.00000000  0.50000032  0.64951730
   0.00000000  0.33333337  0.82893790
   0.00000000  0.50000032  0.76913111
   0.66666667  0.00000003  0.23086889
   0.66666667  0.16666698  0.17106210
   0.66666667  0.00000003  0.35048270
   0.66666667  0.16666698  0.29067590
   0.66666667  0.00000003  0.47009650
   0.66666667  0.16666698  0.41028970
   0.66666667  0.00000003  0.58971030
   0.66666667  0.16666698  0.52990350
   0.66666667  0.00000003  0.70932410
   0.66666667  0.16666698  0.64951730
   0.66666667  0.00000003  0.82893790
   0.66666667  0.16666698  0.76913111
   0.33333333  0.33333337  0.23086889
   0.33333333  0.50000032  0.17106210
   0.33333333  0.33333337  0.35048270
   0.33333333  0.50000032  0.29067590
   0.33333333  0.33333337  0.47009650
   0.33333333  0.50000032  0.41028970
   0.33333333  0.33333337  0.58971030
   0.33333333  0.50000032  0.52990350
   0.33333333  0.33333337  0.70932410
   0.33333333  0.50000032  0.64951730
   0.33333333  0.33333337  0.82893790
   0.33333333  0.50000032  0.76913111
   0.00000000  0.66666670  0.23086889
   0.00000000  0.83333365  0.17106210
   0.00000000  0.66666670  0.35048270
   0.00000000  0.83333365  0.29067590
   0.00000000  0.66666670  0.47009650
   0.00000000  0.83333365  0.41028970
   0.00000000  0.66666670  0.58971030
   0.00000000  0.83333365  0.52990350
   0.00000000  0.66666670  0.70932410
   0.00000000  0.83333365  0.64951730
   0.00000000  0.66666670  0.82893790
   0.00000000  0.83333365  0.76913111
   0.66666667  0.33333337  0.23086889
   0.66666667  0.50000032  0.17106210
   0.66666667  0.33333337  0.35048270
   0.66666667  0.50000032  0.29067590
   0.66666667  0.33333337  0.47009650
   0.66666667  0.50000032  0.41028970
   0.66666667  0.33333337  0.58971030
   0.66666667  0.50000032  0.52990350
   0.66666667  0.33333337  0.70932410
   0.66666667  0.50000032  0.64951730
   0.66666667  0.33333337  0.82893790
   0.66666667  0.50000032  0.76913111
   0.33333333  0.66666670  0.23086889
   0.33333333  0.83333365  0.17106210
   0.33333333  0.66666670  0.35048270
   0.33333333  0.83333365  0.29067590
   0.33333333  0.66666670  0.47009650
   0.33333333  0.83333365  0.41028970
   0.33333333  0.66666670  0.58971030
   0.33333333  0.83333365  0.52990350
   0.33333333  0.66666670  0.70932410
   0.33333333  0.83333365  0.64951730
   0.33333333  0.66666670  0.82893790
   0.33333333  0.83333365  0.76913111
   0.66666667  0.66666670  0.23086889
   0.66666667  0.83333365  0.17106210
   0.66666667  0.66666670  0.35048270
   0.66666667  0.83333365  0.29067590
   0.66666667  0.66666670  0.47009650
   0.66666667  0.83333365  0.41028970
   0.66666667  0.66666670  0.58971030
   0.66666667  0.83333365  0.52990350
   0.66666667  0.66666670  0.70932410
   0.66666667  0.83333365  0.64951730
   0.66666667  0.66666670  0.82893790
   0.66666667  0.83333365  0.76913111
 
 position of ions in cartesian coordinates  (Angst):
  -0.00000059 -0.00000000  8.09772212
  -2.96663821 -0.00000000  6.00000000
  -0.00000059 -0.00000000 12.29317442
  -2.96663821 -0.00000000 10.19545195
  -0.00000059 -0.00000000 16.48862636
  -2.96663821 -0.00000000 14.39090390
  -0.00000059 -0.00000000 20.68407831
  -2.96663821 -0.00000000 18.58635585
  -0.00000059 -0.00000000 24.87953026
  -2.96663821 -0.00000000 22.78180780
  -0.00000059 -0.00000000 29.07498221
  -2.96663821 -0.00000000 26.97726010
  -2.96663317  2.96663257  8.09772212
  -5.93327078  2.96663257  6.00000000
  -2.96663317  2.96663257 12.29317442
  -5.93327078  2.96663257 10.19545195
  -2.96663317  2.96663257 16.48862636
  -5.93327078  2.96663257 14.39090390
  -2.96663317  2.96663257 20.68407831
  -5.93327078  2.96663257 18.58635585
  -2.96663317  2.96663257 24.87953026
  -5.93327078  2.96663257 22.78180780
  -2.96663317  2.96663257 29.07498221
  -5.93327078  2.96663257 26.97726010
  -5.93326574 -0.00000000  8.09772212
  -8.89990336 -0.00000000  6.00000000
  -5.93326574 -0.00000000 12.29317442
  -8.89990336 -0.00000000 10.19545195
  -5.93326574 -0.00000000 16.48862636
  -8.89990336 -0.00000000 14.39090390
  -5.93326574 -0.00000000 20.68407831
  -8.89990336 -0.00000000 18.58635585
  -5.93326574 -0.00000000 24.87953026
  -8.89990336 -0.00000000 22.78180780
  -5.93326574 -0.00000000 29.07498221
  -8.89990336 -0.00000000 26.97726010
  -5.93326574  5.93326515  8.09772212
  -8.89990336  5.93326515  6.00000000
  -5.93326574  5.93326515 12.29317442
  -8.89990336  5.93326515 10.19545195
  -5.93326574  5.93326515 16.48862636
  -8.89990336  5.93326515 14.39090390
  -5.93326574  5.93326515 20.68407831
  -8.89990336  5.93326515 18.58635585
  -5.93326574  5.93326515 24.87953026
  -8.89990336  5.93326515 22.78180780
  -5.93326574  5.93326515 29.07498221
  -8.89990336  5.93326515 26.97726010
  -8.89989831  2.96663257  8.09772212
 -11.86653593  2.96663257  6.00000000
  -8.89989831  2.96663257 12.29317442
 -11.86653593  2.96663257 10.19545195
  -8.89989831  2.96663257 16.48862636
 -11.86653593  2.96663257 14.39090390
  -8.89989831  2.96663257 20.68407831
 -11.86653593  2.96663257 18.58635585
  -8.89989831  2.96663257 24.87953026
 -11.86653593  2.96663257 22.78180780
  -8.89989831  2.96663257 29.07498221
 -11.86653593  2.96663257 26.97726010
 -11.86653089 -0.00000000  8.09772212
 -14.83316850 -0.00000000  6.00000000
 -11.86653089 -0.00000000 12.29317442
 -14.83316850 -0.00000000 10.19545195
 -11.86653089 -0.00000000 16.48862636
 -14.83316850 -0.00000000 14.39090390
 -11.86653089 -0.00000000 20.68407831
 -14.83316850 -0.00000000 18.58635585
 -11.86653089 -0.00000000 24.87953026
 -14.83316850 -0.00000000 22.78180780
 -11.86653089 -0.00000000 29.07498221
 -14.83316850 -0.00000000 26.97726010
 -11.86653089  5.93326515  8.09772212
 -14.83316850  5.93326515  6.00000000
 -11.86653089  5.93326515 12.29317442
 -14.83316850  5.93326515 10.19545195
 -11.86653089  5.93326515 16.48862636
 -14.83316850  5.93326515 14.39090390
 -11.86653089  5.93326515 20.68407831
 -14.83316850  5.93326515 18.58635585
 -11.86653089  5.93326515 24.87953026
 -14.83316850  5.93326515 22.78180780
 -11.86653089  5.93326515 29.07498221
 -14.83316850  5.93326515 26.97726010
 -14.83316346  2.96663257  8.09772212
 -17.79980108  2.96663257  6.00000000
 -14.83316346  2.96663257 12.29317442
 -17.79980108  2.96663257 10.19545195
 -14.83316346  2.96663257 16.48862636
 -17.79980108  2.96663257 14.39090390
 -14.83316346  2.96663257 20.68407831
 -17.79980108  2.96663257 18.58635585
 -14.83316346  2.96663257 24.87953026
 -17.79980108  2.96663257 22.78180780
 -14.83316346  2.96663257 29.07498221
 -17.79980108  2.96663257 26.97726010
 -17.79979603  5.93326515  8.09772212
 -20.76643365  5.93326515  6.00000000
 -17.79979603  5.93326515 12.29317442
 -20.76643365  5.93326515 10.19545195
 -17.79979603  5.93326515 16.48862636
 -20.76643365  5.93326515 14.39090390
 -17.79979603  5.93326515 20.68407831
 -20.76643365  5.93326515 18.58635585
 -17.79979603  5.93326515 24.87953026
 -20.76643365  5.93326515 22.78180780
 -17.79979603  5.93326515 29.07498221
 -20.76643365  5.93326515 26.97726010
 


--------------------------------------------------------------------------------------------------------


 k-point   1 :   0.0000 0.0000 0.0000  plane waves:  100923
 k-point   2 :   0.5000 0.0000 0.0000  plane waves:  100756

 maximum and minimum number of plane-waves per node :      6747     6693

 maximum number of plane-waves:    100923
 maximum index in each direction: 
   IXMAX=   20   IYMAX=   29   IZMAX=   57
   IXMIN=  -21   IYMIN=  -29   IZMIN=  -57


 real space projection operators:
  total allocation   :       5413.59 KBytes
  max/ min on nodes  :        540.47        270.94


 parallel 3D FFT for wavefunctions:
    minimum data exchange during FFTs selected (reduces bandwidth)
 parallel 3D FFT for charge:
    minimum data exchange during FFTs selected (reduces bandwidth)


 total amount of memory used by VASP MPI-rank0    51934. kBytes
=======================================================================

   base      :      30000. kBytes
   nonlr-proj:       3079. kBytes
   fftplans  :       6320. kBytes
   grid      :       9491. kBytes
   one-center:          9. kBytes
   wavefun   :       3035. kBytes
 
     INWAV:  cpu time    0.0001: real time    0.0001
 Broyden mixing: mesh for mixing (old mesh)
   NGX = 41   NGY = 59   NGZ =115
  (NGX  =128   NGY  =180   NGZ  =360)
  gives a total of 278185 points

 initial charge density was supplied:
 charge density of overlapping atoms calculated
 number of electron     108.0000000 magnetization 
 keeping initial charge density in first step


--------------------------------------------------------------------------------------------------------


 Maximum index for non-local projection operator          202
 Maximum index for augmentation-charges          725 (set IRDMAX)


--------------------------------------------------------------------------------------------------------


 First call to EWALD:  gamma=   0.100
 Maximum number of real-space cells 5x 4x 2
 Maximum number of reciprocal cells 2x 3x 5

    FEWALD:  cpu time    0.0032: real time    0.0032


--------------------------------------- Iteration      1(   1)  ---------------------------------------


    POTLOK:  cpu time    0.0772: real time    0.0921
    SETDIJ:  cpu time    0.0465: real time    0.0466
     EDDAV:  cpu time    0.9280: real time    0.9405
       DOS:  cpu time    0.0036: real time    0.0043
    --------------------------------------------
      LOOP:  cpu time    1.0554: real time    1.0835

 eigenvalue-minimisations  :   448
 total energy-change (2. order) : 0.2769576E+01  (-0.1778384E+04)
 number of electron     108.0000000 magnetization 
 augmentation part      108.0000000 magnetization 

 DIPCOR: dipole corrections for dipol
 direction  3 min pos     1,
 dipolmoment           0.000000      0.000000      0.000000 electrons x Angstroem
 Tr[quadrupol]     -4009.164890

 energy correction for charged system         0.000000 eV
 dipol+quadrupol energy correction           -0.000000 eV
 added-field ion interaction          0.000000 eV  (added to PSCEN)


 Free energy of the ion-electron system (eV)
  ---------------------------------------------------
  alpha Z        PSCENC =       -38.44870795
  Ewald energy   TEWEN  =       908.66716911
  -Hartree energ DENC   =     -1454.57047939
  -exchange      EXHF   =         0.00000000
  -V(xc)+E(xc)   XCENC  =     -3952.00757164
  PAW double counting   =      4306.62377697     -255.70647382
  entropy T*S    EENTRO =        -0.12701337
  eigenvalues    EBANDS =       -68.73046465
  atomic energy  EATOM  =       557.06934077
  Solvation  Ediel_sol  =         0.00000000
  ---------------------------------------------------
  free energy    TOTEN  =         2.76957603 eV

  energy without entropy =        2.89658940  energy(sigma->0) =        2.83308272


--------------------------------------------------------------------------------------------------------




--------------------------------------- Iteration      1(   2)  ---------------------------------------


     EDDAV:  cpu time    0.9793: real time    0.9870
       DOS:  cpu time    0.0005: real time    0.0005
    --------------------------------------------
      LOOP:  cpu time    0.9798: real time    0.9875

 eigenvalue-minimisations  :   512
 total energy-change (2. order) :-0.1350380E+03  (-0.1246289E+03)
 number of electron     108.0000000 magnetization 
 augmentation part      108.0000000 magnetization 

 DIPCOR: dipole corrections for dipol
 direction  3 min pos     1,
 dipolmoment           0.000000      0.000000      0.000000 electrons x Angstroem
 Tr[quadrupol]     -4009.164890

 energy correction for charged system         0.000000 eV
 dipol+quadrupol energy correction           -0.000000 eV
 added-field ion interaction          0.000000 eV  (added to PSCEN)


 Free energy of the ion-electron system (eV)
  ---------------------------------------------------
  alpha Z        PSCENC =       -38.44870795
  Ewald energy   TEWEN  =       908.66716911
  -Hartree energ DENC   =     -1454.57047939
  -exchange      EXHF   =         0.00000000
  -V(xc)+E(xc)   XCENC  =     -3952.00757164
  PAW double counting   =      4306.62377697     -255.70647382
  entropy T*S    EENTRO =        -0.23031939
  eigenvalues    EBANDS =      -203.66516096
  atomic energy  EATOM  =       557.06934077
  Solvation  Ediel_sol  =         0.00000000
  ---------------------------------------------------
  free energy    TOTEN  =      -132.26842629 eV

  energy without entropy =     -132.03810690  energy(sigma->0) =     -132.15326659


--------------------------------------------------------------------------------------------------------




--------------------------------------- Iteration      1(   3)  ---------------------------------------


     EDDAV:  cpu time    1.0715: real time    1.0716
       DOS:  cpu time    0.0005: real time    0.0005
    --------------------------------------------
      LOOP:  cpu time    1.0720: real time    1.0721

 eigenvalue-minimisations  :   584
 total energy-change (2. order) :-0.9412565E+01  (-0.8873849E+01)
 number of electron     108.0000000 magnetization 
 augmentation part      108.0000000 magnetization 

 DIPCOR: dipole corrections for dipol
 direction  3 min pos     1,
 dipolmoment           0.000000      0.000000      0.000000 electrons x Angstroem
 Tr[quadrupol]     -4009.164890

 energy correction for charged system         0.000000 eV
 dipol+quadrupol energy correction           -0.000000 eV
 added-field ion interaction          0.000000 eV  (added to PSCEN)


 Free energy of the ion-electron system (eV)
  ---------------------------------------------------
  alpha Z        PSCENC =       -38.44870795
  Ewald energy   TEWEN  =       908.66716911
  -Hartree energ DENC   =     -1454.57047939
  -exchange      EXHF   =         0.00000000
  -V(xc)+E(xc)   XCENC  =     -3952.00757164
  PAW double counting   =      4306.62377697     -255.70647382
  entropy T*S    EENTRO =        -0.30716509
  eigenvalues    EBANDS =      -213.00087989
  atomic energy  EATOM  =       557.06934077
  Solvation  Ediel_sol  =         0.00000000
  ---------------------------------------------------
  free energy    TOTEN  =      -141.68099092 eV

  energy without entropy =     -141.37382583  energy(sigma->0) =     -141.52740838


--------------------------------------------------------------------------------------------------------




--------------------------------------- Iteration      1(   4)  ---------------------------------------


     EDDAV:  cpu time    1.3406: real time    1.4409
       DOS:  cpu time    0.0033: real time    0.0034
    --------------------------------------------
      LOOP:  cpu time    1.3439: real time    1.4443

 eigenvalue-minimisations  :   688
 total energy-change (2. order) :-0.5095645E+00  (-0.5071786E+00)
 number of electron     108.0000000 magnetization 
 augmentation part      108.0000000 magnetization 

 DIPCOR: dipole corrections for dipol
 direction  3 min pos     1,
 dipolmoment           0.000000      0.000000      0.000000 electrons x Angstroem
 Tr[quadrupol]     -4009.164890

 energy correction for charged system         0.000000 eV
 dipol+quadrupol energy correction           -0.000000 eV
 added-field ion interaction          0.000000 eV  (added to PSCEN)


 Free energy of the ion-electron system (eV)
  ---------------------------------------------------
  alpha Z        PSCENC =       -38.44870795
  Ewald energy   TEWEN  =       908.66716911
  -Hartree energ DENC   =     -1454.57047939
  -exchange      EXHF   =         0.00000000
  -V(xc)+E(xc)   XCENC  =     -3952.00757164
  PAW double counting   =      4306.62377697     -255.70647382
  entropy T*S    EENTRO =        -0.30757008
  eigenvalues    EBANDS =      -213.51003944
  atomic energy  EATOM  =       557.06934077
  Solvation  Ediel_sol  =         0.00000000
  ---------------------------------------------------
  free energy    TOTEN  =      -142.19055545 eV

  energy without entropy =     -141.88298538  energy(sigma->0) =     -142.03677042


--------------------------------------------------------------------------------------------------------




--------------------------------------- Iteration      1(   5)  ---------------------------------------


     EDDAV:  cpu time    1.2617: real time    1.2695
       DOS:  cpu time    0.0005: real time    0.0005
    CHARGE:  cpu time    0.0410: real time    0.0413
    MIXING:  cpu time    0.0062: real time    0.0073
    --------------------------------------------
      LOOP:  cpu time    1.3094: real time    1.3186

 eigenvalue-minimisations  :   712
 total energy-change (2. order) :-0.3587122E-01  (-0.3586428E-01)
 number of electron     108.0000000 magnetization 
 augmentation part        0.7916041 magnetization 

 DIPCOR: dipole corrections for dipol
 direction  3 min pos     1,
 dipolmoment           0.000000      0.000000      0.000000 electrons x Angstroem
 Tr[quadrupol]     -4009.164890

 energy correction for charged system         0.000000 eV
 dipol+quadrupol energy correction           -0.000000 eV
 added-field ion interaction          0.000000 eV  (added to PSCEN)


 Broyden mixing:
  rms(total) = 0.32959E+00    rms(broyden)= 0.32959E+00
  rms(prec ) = 0.67637E+00
  weight for this iteration     100.00

 Free energy of the ion-electron system (eV)
  ---------------------------------------------------
  alpha Z        PSCENC =       -38.44870795
  Ewald energy   TEWEN  =       908.66716911
  -Hartree energ DENC   =     -1454.57047939
  -exchange      EXHF   =         0.00000000
  -V(xc)+E(xc)   XCENC  =     -3952.00757164
  PAW double counting   =      4306.62377697     -255.70647382
  entropy T*S    EENTRO =        -0.30761170
  eigenvalues    EBANDS =      -213.54586903
  atomic energy  EATOM  =       557.06934077
  Solvation  Ediel_sol  =         0.00000000
  ---------------------------------------------------
  free energy    TOTEN  =      -142.22642668 eV

  energy without entropy =     -141.91881498  energy(sigma->0) =     -142.07262083


--------------------------------------------------------------------------------------------------------




--------------------------------------- Iteration      1(   6)  ---------------------------------------


    POTLOK:  cpu time    0.0814: real time    0.0814
    SETDIJ:  cpu time    0.0483: real time    0.0483
    EDDIAG:  cpu time    0.1830: real time    0.1843
  RMM-DIIS:  cpu time    0.5699: real time    0.5706
    ORTHCH:  cpu time    0.0374: real time    0.0430
       DOS:  cpu time    0.0006: real time    0.0006
    CHARGE:  cpu time    0.0415: real time    0.0416
    MIXING:  cpu time    0.0034: real time    0.0039
    --------------------------------------------
      LOOP:  cpu time    0.9654: real time    0.9737

 eigenvalue-minimisations  :   448
 total energy-change (2. order) : 0.1905832E+01  (-0.5294848E-01)
 number of electron     108.0000000 magnetization 
 augmentation part        0.7811268 magnetization 

 DIPCOR: dipole corrections for dipol
 direction  3 min pos     1,
 dipolmoment           0.000000      0.000000     -0.000014 electrons x Angstroem
 Tr[quadrupol]     -4012.272261

 energy correction for charged system         0.000000 eV
 dipol+quadrupol energy correction           -0.000000 eV
 added-field ion interaction         -0.000000 eV  (added to PSCEN)


 Broyden mixing:
  rms(total) = 0.21533E+00    rms(broyden)= 0.21533E+00
  rms(prec ) = 0.43171E+00
  weight for this iteration     100.00

 eigenvalues of (default mixing * dielectric matrix)
  average eigenvalue GAMMA=   2.4338
  2.4338

 Free energy of the ion-electron system (eV)
  ---------------------------------------------------
  alpha Z        PSCENC =       -38.44870795
  Ewald energy   TEWEN  =       908.66716911
  -Hartree energ DENC   =     -1460.94279001
  -exchange      EXHF   =         0.00000000
  -V(xc)+E(xc)   XCENC  =     -3949.90322557
  PAW double counting   =      4287.33322731     -236.51765319
  entropy T*S    EENTRO =        -0.32269077
  eigenvalues    EBANDS =      -207.25526466
  atomic energy  EATOM  =       557.06934077
  Solvation  Ediel_sol  =         0.00000000
  ---------------------------------------------------
  free energy    TOTEN  =      -140.32059496 eV

  energy without entropy =     -139.99790419  energy(sigma->0) =     -140.15924957


--------------------------------------------------------------------------------------------------------




--------------------------------------- Iteration      1(   7)  ---------------------------------------


    POTLOK:  cpu time    0.0787: real time    0.0787
    SETDIJ:  cpu time    0.0447: real time    0.0447
    EDDIAG:  cpu time    0.1800: real time    0.1800
  RMM-DIIS:  cpu time    0.5945: real time    0.5945
    ORTHCH:  cpu time    0.0411: real time    0.0411
       DOS:  cpu time    0.0007: real time    0.0007
    CHARGE:  cpu time    0.0424: real time    0.0424
    MIXING:  cpu time    0.0014: real time    0.0014
    --------------------------------------------
      LOOP:  cpu time    0.9835: real time    0.9835

 eigenvalue-minimisations  :   461
 total energy-change (2. order) : 0.1403199E+01  (-0.2441614E+00)
 number of electron     108.0000000 magnetization 
 augmentation part        0.7649467 magnetization 

 DIPCOR: dipole corrections for dipol
 direction  3 min pos     1,
 dipolmoment           0.000000      0.000000      0.000019 electrons x Angstroem
 Tr[quadrupol]     -4020.894890

 energy correction for charged system         0.000000 eV
 dipol+quadrupol energy correction           -0.000000 eV
 added-field ion interaction          0.000000 eV  (added to PSCEN)


 Broyden mixing:
  rms(total) = 0.83342E-01    rms(broyden)= 0.83342E-01
  rms(prec ) = 0.14675E+00
  weight for this iteration     100.00

 eigenvalues of (default mixing * dielectric matrix)
  average eigenvalue GAMMA=   2.1729
  2.1729  2.1729

 Free energy of the ion-electron system (eV)
  ---------------------------------------------------
  alpha Z        PSCENC =       -38.44870795
  Ewald energy   TEWEN  =       908.66716911
  -Hartree energ DENC   =     -1473.69733994
  -exchange      EXHF   =         0.00000000
  -V(xc)+E(xc)   XCENC  =     -3946.11619667
  PAW double counting   =      4261.21407356     -210.56487600
  entropy T*S    EENTRO =        -0.31511073
  eigenvalues    EBANDS =      -196.72574850
  atomic energy  EATOM  =       557.06934077
  Solvation  Ediel_sol  =         0.00000000
  ---------------------------------------------------
  free energy    TOTEN  =      -138.91739633 eV

  energy without entropy =     -138.60228560  energy(sigma->0) =     -138.75984097


--------------------------------------------------------------------------------------------------------




--------------------------------------- Iteration      1(   8)  ---------------------------------------


    POTLOK:  cpu time    0.0789: real time    0.0789
    SETDIJ:  cpu time    0.0447: real time    0.0447
    EDDIAG:  cpu time    0.1795: real time    0.1795
  RMM-DIIS:  cpu time    0.5803: real time    0.5803
    ORTHCH:  cpu time    0.0375: real time    0.0439
       DOS:  cpu time    0.0041: real time    0.0041
    CHARGE:  cpu time    0.0509: real time    0.0509
    MIXING:  cpu time    0.0019: real time    0.0019
    --------------------------------------------
      LOOP:  cpu time    0.9779: real time    0.9843

 eigenvalue-minimisations  :   449
 total energy-change (2. order) : 0.2115331E+00  (-0.2703351E-01)
 number of electron     108.0000000 magnetization 
 augmentation part        0.7649337 magnetization 

 DIPCOR: dipole corrections for dipol
 direction  3 min pos     1,
 dipolmoment           0.000000      0.000000      0.000004 electrons x Angstroem
 Tr[quadrupol]     -4028.398729

 energy correction for charged system         0.000000 eV
 dipol+quadrupol energy correction           -0.000000 eV
 added-field ion interaction          0.000000 eV  (added to PSCEN)


 Broyden mixing:
  rms(total) = 0.52145E-01    rms(broyden)= 0.52145E-01
  rms(prec ) = 0.12009E+00
  weight for this iteration     100.00

 eigenvalues of (default mixing * dielectric matrix)
  average eigenvalue GAMMA=   2.1864
  1.2965  2.9708  2.2919

 Free energy of the ion-electron system (eV)
  ---------------------------------------------------
  alpha Z        PSCENC =       -38.44870795
  Ewald energy   TEWEN  =       908.66716911
  -Hartree energ DENC   =     -1478.71273218
  -exchange      EXHF   =         0.00000000
  -V(xc)+E(xc)   XCENC  =     -3945.24190744
  PAW double counting   =      4256.98497121     -206.34367674
  entropy T*S    EENTRO =        -0.31537832
  eigenvalues    EBANDS =      -192.36494170
  atomic energy  EATOM  =       557.06934077
  Solvation  Ediel_sol  =         0.00000000
  ---------------------------------------------------
  free energy    TOTEN  =      -138.70586323 eV

  energy without entropy =     -138.39048492  energy(sigma->0) =     -138.54817407


--------------------------------------------------------------------------------------------------------




--------------------------------------- Iteration      1(   9)  ---------------------------------------


    POTLOK:  cpu time    0.0787: real time    0.0945
    SETDIJ:  cpu time    0.0468: real time    0.0485
    EDDIAG:  cpu time    0.1866: real time    0.1875
  RMM-DIIS:  cpu time    0.5712: real time    0.5716
    ORTHCH:  cpu time    0.0434: real time    0.0434
       DOS:  cpu time    0.0008: real time    0.0008
    CHARGE:  cpu time    0.0410: real time    0.0410
    MIXING:  cpu time    0.0019: real time    0.0019
    --------------------------------------------
      LOOP:  cpu time    0.9705: real time    0.9891

 eigenvalue-minimisations  :   448
 total energy-change (2. order) : 0.1481137E+00  (-0.1647328E-01)
 number of electron     108.0000000 magnetization 
 augmentation part        0.7630661 magnetization 

 DIPCOR: dipole corrections for dipol
 direction  3 min pos     1,
 dipolmoment           0.000000      0.000000      0.000046 electrons x Angstroem
 Tr[quadrupol]     -4038.842222

 energy correction for charged system         0.000000 eV
 dipol+quadrupol energy correction           -0.000000 eV
 added-field ion interaction          0.000000 eV  (added to PSCEN)


 Broyden mixing:
  rms(total) = 0.50188E-01    rms(broyden)= 0.50188E-01
  rms(prec ) = 0.92700E-01
  weight for this iteration     100.00

 eigenvalues of (default mixing * dielectric matrix)
  average eigenvalue GAMMA=   2.0569
  2.9252  2.9252  1.5443  0.8328

 Free energy of the ion-electron system (eV)
  ---------------------------------------------------
  alpha Z        PSCENC =       -38.44870795
  Ewald energy   TEWEN  =       908.66716911
  -Hartree energ DENC   =     -1485.11194586
  -exchange      EXHF   =         0.00000000
  -V(xc)+E(xc)   XCENC  =     -3944.51198461
  PAW double counting   =      4254.31115366     -203.67857464
  entropy T*S    EENTRO =        -0.31901542
  eigenvalues    EBANDS =      -186.53518463
  atomic energy  EATOM  =       557.06934077
  Solvation  Ediel_sol  =         0.00000000
  ---------------------------------------------------
  free energy    TOTEN  =      -138.55774957 eV

  energy without entropy =     -138.23873415  energy(sigma->0) =     -138.39824186


--------------------------------------------------------------------------------------------------------




--------------------------------------- Iteration      1(  10)  ---------------------------------------


    POTLOK:  cpu time    0.0787: real time    0.0787
    SETDIJ:  cpu time    0.0447: real time    0.0447
    EDDIAG:  cpu time    0.1794: real time    0.1799
  RMM-DIIS:  cpu time    0.5697: real time    0.5698
    ORTHCH:  cpu time    0.0416: real time    0.0416
       DOS:  cpu time    0.0007: real time    0.0007
    CHARGE:  cpu time    0.0412: real time    0.0412
    MIXING:  cpu time    0.0015: real time    0.0015
    --------------------------------------------
      LOOP:  cpu time    0.9575: real time    0.9581

 eigenvalue-minimisations  :   448
 total energy-change (2. order) : 0.1174315E+00  (-0.9993624E-02)
 number of electron     108.0000000 magnetization 
 augmentation part        0.7637536 magnetization 

 DIPCOR: dipole corrections for dipol
 direction  3 min pos     1,
 dipolmoment           0.000000      0.000000      0.000017 electrons x Angstroem
 Tr[quadrupol]     -4057.219755

 energy correction for charged system         0.000000 eV
 dipol+quadrupol energy correction           -0.000000 eV
 added-field ion interaction          0.000000 eV  (added to PSCEN)


 Broyden mixing:
  rms(total) = 0.26075E-01    rms(broyden)= 0.26075E-01
  rms(prec ) = 0.63995E-01
  weight for this iteration     100.00

 eigenvalues of (default mixing * dielectric matrix)
  average eigenvalue GAMMA=   2.3063
  3.6419  3.6419  1.0215  1.6130  1.6130

 Free energy of the ion-electron system (eV)
  ---------------------------------------------------
  alpha Z        PSCENC =       -38.44870795
  Ewald energy   TEWEN  =       908.66716911
  -Hartree energ DENC   =     -1492.17163434
  -exchange      EXHF   =         0.00000000
  -V(xc)+E(xc)   XCENC  =     -3945.10325121
  PAW double counting   =      4260.30884188     -209.63553693
  entropy T*S    EENTRO =        -0.32384152
  eigenvalues    EBANDS =      -178.80269787
  atomic energy  EATOM  =       557.06934077
  Solvation  Ediel_sol  =         0.00000000
  ---------------------------------------------------
  free energy    TOTEN  =      -138.44031806 eV

  energy without entropy =     -138.11647654  energy(sigma->0) =     -138.27839730


--------------------------------------------------------------------------------------------------------




--------------------------------------- Iteration      1(  11)  ---------------------------------------


    POTLOK:  cpu time    0.0787: real time    0.0792
    SETDIJ:  cpu time    0.0449: real time    0.0449
    EDDIAG:  cpu time    0.1783: real time    0.1785
  RMM-DIIS:  cpu time    0.5770: real time    0.5770
    ORTHCH:  cpu time    0.0418: real time    0.0418
       DOS:  cpu time    0.0005: real time    0.0005
    CHARGE:  cpu time    0.0411: real time    0.0411
    MIXING:  cpu time    0.0016: real time    0.0016
    --------------------------------------------
      LOOP:  cpu time    0.9639: real time    0.9646

 eigenvalue-minimisations  :   450
 total energy-change (2. order) : 0.1171016E+00  (-0.1252516E-01)
 number of electron     108.0000000 magnetization 
 augmentation part        0.7622621 magnetization 

 DIPCOR: dipole corrections for dipol
 direction  3 min pos     1,
 dipolmoment           0.000000      0.000000     -0.000003 electrons x Angstroem
 Tr[quadrupol]     -4078.349185

 energy correction for charged system         0.000000 eV
 dipol+quadrupol energy correction           -0.000000 eV
 added-field ion interaction         -0.000000 eV  (added to PSCEN)


 Broyden mixing:
  rms(total) = 0.25604E-01    rms(broyden)= 0.25604E-01
  rms(prec ) = 0.44223E-01
  weight for this iteration     100.00

 eigenvalues of (default mixing * dielectric matrix)
  average eigenvalue GAMMA=   2.4145
  4.1111  4.1111  2.5100  1.6706  1.2005  0.8839

 Free energy of the ion-electron system (eV)
  ---------------------------------------------------
  alpha Z        PSCENC =       -38.44870795
  Ewald energy   TEWEN  =       908.66716911
  -Hartree energ DENC   =     -1501.32691382
  -exchange      EXHF   =         0.00000000
  -V(xc)+E(xc)   XCENC  =     -3945.07025412
  PAW double counting   =      4260.94604533     -210.26934973
  entropy T*S    EENTRO =        -0.32715024
  eigenvalues    EBANDS =      -169.56339579
  atomic energy  EATOM  =       557.06934077
  Solvation  Ediel_sol  =         0.00000000
  ---------------------------------------------------
  free energy    TOTEN  =      -138.32321642 eV

  energy without entropy =     -137.99606619  energy(sigma->0) =     -138.15964130


--------------------------------------------------------------------------------------------------------




--------------------------------------- Iteration      1(  12)  ---------------------------------------


    POTLOK:  cpu time    0.0790: real time    0.0790
    SETDIJ:  cpu time    0.0456: real time    0.0456
    EDDIAG:  cpu time    0.1785: real time    0.1785
  RMM-DIIS:  cpu time    0.5861: real time    0.5861
    ORTHCH:  cpu time    0.0408: real time    0.0408
       DOS:  cpu time    0.0006: real time    0.0006
    CHARGE:  cpu time    0.0416: real time    0.0416
    MIXING:  cpu time    0.0017: real time    0.0017
    --------------------------------------------
      LOOP:  cpu time    0.9739: real time    0.9740

 eigenvalue-minimisations  :   458
 total energy-change (2. order) :-0.4940139E-01  (-0.7742371E-02)
 number of electron     108.0000000 magnetization 
 augmentation part        0.7596472 magnetization 

 DIPCOR: dipole corrections for dipol
 direction  3 min pos     1,
 dipolmoment           0.000000      0.000000     -0.000016 electrons x Angstroem
 Tr[quadrupol]     -4086.770606

 energy correction for charged system         0.000000 eV
 dipol+quadrupol energy correction           -0.000000 eV
 added-field ion interaction         -0.000000 eV  (added to PSCEN)


 Broyden mixing:
  rms(total) = 0.19773E-01    rms(broyden)= 0.19773E-01
  rms(prec ) = 0.31932E-01
  weight for this iteration     100.00

 eigenvalues of (default mixing * dielectric matrix)
  average eigenvalue GAMMA=   2.9378
  6.1872  6.1872  2.6069  2.1095  1.5800  0.9470  0.9470

 Free energy of the ion-electron system (eV)
  ---------------------------------------------------
  alpha Z        PSCENC =       -38.44870795
  Ewald energy   TEWEN  =       908.66716911
  -Hartree energ DENC   =     -1504.76974509
  -exchange      EXHF   =         0.00000000
  -V(xc)+E(xc)   XCENC  =     -3945.00982432
  PAW double counting   =      4258.71483168     -208.05287027
  entropy T*S    EENTRO =        -0.32652366
  eigenvalues    EBANDS =      -166.21628809
  atomic energy  EATOM  =       557.06934077
  Solvation  Ediel_sol  =         0.00000000
  ---------------------------------------------------
  free energy    TOTEN  =      -138.37261781 eV

  energy without entropy =     -138.04609415  energy(sigma->0) =     -138.20935598


--------------------------------------------------------------------------------------------------------




--------------------------------------- Iteration      1(  13)  ---------------------------------------


    POTLOK:  cpu time    0.0790: real time    0.0790
    SETDIJ:  cpu time    0.0448: real time    0.0448
    EDDIAG:  cpu time    0.1791: real time    0.1793
  RMM-DIIS:  cpu time    0.5699: real time    0.5700
    ORTHCH:  cpu time    0.0404: real time    0.0404
       DOS:  cpu time    0.0008: real time    0.0008
    CHARGE:  cpu time    0.0405: real time    0.0405
    MIXING:  cpu time    0.0020: real time    0.0020
    --------------------------------------------
      LOOP:  cpu time    0.9564: real time    0.9567

 eigenvalue-minimisations  :   448
 total energy-change (2. order) :-0.4733826E-01  (-0.3053578E-02)
 number of electron     108.0000000 magnetization 
 augmentation part        0.7613971 magnetization 

 DIPCOR: dipole corrections for dipol
 direction  3 min pos     1,
 dipolmoment           0.000000      0.000000      0.000005 electrons x Angstroem
 Tr[quadrupol]     -4087.537603

 energy correction for charged system         0.000000 eV
 dipol+quadrupol energy correction           -0.000000 eV
 added-field ion interaction          0.000000 eV  (added to PSCEN)


 Broyden mixing:
  rms(total) = 0.96721E-02    rms(broyden)= 0.96721E-02
  rms(prec ) = 0.22423E-01
  weight for this iteration     100.00

 eigenvalues of (default mixing * dielectric matrix)
  average eigenvalue GAMMA=   3.1001
  8.8029  6.1061  3.0532  1.9308  1.8323  0.9292  1.0733  1.0733

 Free energy of the ion-electron system (eV)
  ---------------------------------------------------
  alpha Z        PSCENC =       -38.44870795
  Ewald energy   TEWEN  =       908.66716911
  -Hartree energ DENC   =     -1504.04183162
  -exchange      EXHF   =         0.00000000
  -V(xc)+E(xc)   XCENC  =     -3945.16273603
  PAW double counting   =      4259.21813682     -208.54424075
  entropy T*S    EENTRO =        -0.32793963
  eigenvalues    EBANDS =      -166.84914679
  atomic energy  EATOM  =       557.06934077
  Solvation  Ediel_sol  =         0.00000000
  ---------------------------------------------------
  free energy    TOTEN  =      -138.41995607 eV

  energy without entropy =     -138.09201644  energy(sigma->0) =     -138.25598625


--------------------------------------------------------------------------------------------------------




--------------------------------------- Iteration      1(  14)  ---------------------------------------


    POTLOK:  cpu time    0.0798: real time    0.0798
    SETDIJ:  cpu time    0.0448: real time    0.0448
    EDDIAG:  cpu time    0.1789: real time    0.1789
  RMM-DIIS:  cpu time    0.5698: real time    0.5698
    ORTHCH:  cpu time    0.0419: real time    0.0419
       DOS:  cpu time    0.0005: real time    0.0005
    CHARGE:  cpu time    0.0409: real time    0.0409
    MIXING:  cpu time    0.0018: real time    0.0018
    --------------------------------------------
      LOOP:  cpu time    0.9584: real time    0.9584

 eigenvalue-minimisations  :   448
 total energy-change (2. order) :-0.7350623E-02  (-0.1353157E-02)
 number of electron     108.0000000 magnetization 
 augmentation part        0.7602779 magnetization 

 DIPCOR: dipole corrections for dipol
 direction  3 min pos     1,
[...]
   0.982E-02 -.127E-01 0.136E+02   -.546E-02 0.105E-01 -.136E+02   -.727E-03 0.603E-02 -.123E-01   -.783E-06 -.520E-06 0.778E-04
   -.199E-02 0.757E-02 0.170E+02   0.252E-02 -.432E-02 -.162E+02   -.610E-03 -.426E-02 -.858E+00   0.137E-05 0.169E-05 0.898E-04
   0.362E-02 0.443E-02 0.743E+01   -.229E-02 -.410E-02 -.741E+01   0.248E-02 0.308E-02 -.161E-01   -.338E-06 -.159E-05 0.418E-04
   0.425E-02 0.709E-02 0.103E+02   -.162E-02 -.705E-02 -.104E+02   -.555E-02 -.237E-02 0.900E-01   0.184E-06 0.289E-06 0.594E-04
   0.774E-02 -.584E-02 0.147E+01   -.512E-02 0.472E-02 -.149E+01   -.376E-02 0.186E-02 0.303E-01   0.882E-06 -.672E-07 0.911E-05
   -.111E-01 0.970E-02 0.450E+01   0.101E-01 -.889E-02 -.449E+01   0.217E-02 -.190E-02 -.944E-02   0.991E-06 0.186E-06 0.255E-04
   -.400E-02 0.946E-02 -.449E+01   0.322E-02 -.838E-02 0.448E+01   -.343E-02 0.414E-03 0.783E-02   0.180E-05 0.149E-05 -.236E-04
   0.990E-02 -.486E-02 -.146E+01   -.688E-02 0.365E-02 0.148E+01   -.605E-02 0.115E-02 -.267E-01   0.197E-06 0.186E-05 -.858E-05
   0.353E-02 0.704E-02 -.103E+02   -.101E-02 -.702E-02 0.104E+02   -.247E-02 -.167E-02 -.897E-01   -.111E-06 -.385E-06 -.589E-04
   0.687E-02 0.868E-02 -.743E+01   -.475E-02 -.782E-02 0.742E+01   -.104E-02 -.184E-04 0.208E-01   0.365E-06 0.807E-06 -.375E-04
   -.126E-01 0.468E-02 -.170E+02   0.966E-02 -.300E-02 0.162E+02   0.454E-02 -.218E-02 0.859E+00   0.524E-06 -.165E-06 -.888E-04
   0.164E-01 -.114E-01 -.136E+02   -.108E-01 0.907E-02 0.136E+02   -.207E-02 0.413E-02 0.105E-01   0.188E-05 -.155E-05 -.793E-04
   0.674E-02 -.109E-02 0.136E+02   -.527E-02 0.839E-03 -.136E+02   -.296E-02 -.283E-03 -.119E-01   0.238E-05 0.114E-05 0.804E-04
   -.852E-02 -.809E-02 0.170E+02   0.581E-02 0.577E-02 -.162E+02   0.140E-02 0.263E-02 -.870E+00   -.564E-06 0.619E-06 0.874E-04
   0.894E-03 -.172E-02 0.744E+01   -.972E-03 0.115E-02 -.742E+01   0.145E-02 -.171E-02 -.137E-01   0.198E-05 -.712E-06 0.415E-04
   -.195E-03 0.380E-02 0.103E+02   0.362E-04 -.343E-02 -.104E+02   -.110E-02 -.532E-03 0.990E-01   0.102E-05 0.129E-05 0.612E-04
   0.234E-02 -.280E-02 0.147E+01   -.192E-02 0.251E-02 -.149E+01   -.353E-02 0.290E-02 0.190E-01   0.181E-05 -.538E-06 0.724E-05
   0.135E-02 0.281E-02 0.450E+01   -.119E-02 -.283E-02 -.448E+01   -.747E-03 -.161E-02 -.194E-01   0.122E-05 -.284E-06 0.252E-04
   -.475E-02 -.264E-02 -.450E+01   0.386E-02 0.220E-02 0.448E+01   0.380E-02 0.112E-02 0.169E-01   -.604E-06 -.460E-06 -.224E-04
   -.440E-02 0.341E-02 -.147E+01   0.390E-02 -.276E-02 0.149E+01   0.403E-02 -.396E-02 -.206E-01   -.214E-05 0.420E-06 -.567E-05
   -.305E-02 0.182E-02 -.103E+02   0.298E-02 -.161E-02 0.104E+02   -.452E-03 -.310E-03 -.983E-01   -.568E-06 0.951E-06 -.586E-04
   -.482E-02 -.271E-02 -.744E+01   0.400E-02 0.238E-02 0.742E+01   0.247E-02 0.181E-03 0.127E-01   -.304E-05 -.301E-06 -.380E-04
   0.165E-02 -.279E-02 -.170E+02   -.109E-02 0.189E-02 0.162E+02   -.135E-02 0.145E-02 0.864E+00   -.631E-06 0.121E-05 -.891E-04
   0.142E-02 -.141E-02 -.137E+02   -.120E-02 0.140E-02 0.136E+02   -.878E-03 0.151E-03 0.146E-01   -.512E-06 -.309E-06 -.803E-04
   -.168E-01 0.124E-01 0.136E+02   0.113E-01 -.998E-02 -.136E+02   0.568E-02 -.851E-02 -.128E-01   -.344E-06 -.151E-05 0.791E-04
   0.921E-02 -.182E-02 0.170E+02   -.681E-02 0.425E-03 -.162E+02   0.771E-03 -.373E-03 -.854E+00   -.389E-06 -.110E-05 0.887E-04
   -.914E-02 -.564E-02 0.743E+01   0.702E-02 0.483E-02 -.742E+01   0.672E-03 -.272E-02 -.171E-01   -.163E-05 0.509E-06 0.408E-04
   -.447E-02 -.894E-02 0.103E+02   0.179E-02 0.828E-02 -.104E+02   0.260E-02 0.647E-02 0.816E-01   -.182E-06 0.913E-07 0.609E-04
   -.944E-02 0.653E-02 0.146E+01   0.699E-02 -.515E-02 -.149E+01   0.337E-02 0.285E-03 0.296E-01   -.966E-06 -.773E-06 0.962E-05
   0.432E-02 -.633E-02 0.450E+01   -.370E-02 0.583E-02 -.449E+01   0.145E-02 0.413E-02 -.851E-02   -.916E-06 0.111E-05 0.257E-04
   0.162E-01 -.305E-02 -.449E+01   -.138E-01 0.305E-02 0.448E+01   -.338E-02 0.231E-02 0.658E-02   0.241E-06 0.285E-05 -.224E-04
   -.131E-01 0.626E-02 -.146E+01   0.952E-02 -.475E-02 0.149E+01   0.154E-02 0.789E-03 -.313E-01   -.106E-05 -.197E-06 -.764E-05
   -.290E-02 0.213E-02 -.103E+02   0.279E-03 -.136E-02 0.104E+02   0.279E-02 -.239E-02 -.851E-01   0.134E-05 0.258E-05 -.610E-04
   -.558E-02 -.865E-03 -.743E+01   0.349E-02 0.119E-02 0.742E+01   -.369E-03 -.221E-02 0.167E-01   0.737E-06 0.210E-05 -.398E-04
   0.748E-02 -.318E-02 -.170E+02   -.580E-02 0.147E-02 0.162E+02   -.145E-03 0.985E-03 0.857E+00   0.143E-05 0.217E-06 -.885E-04
   -.117E-01 0.117E-01 -.136E+02   0.688E-02 -.950E-02 0.136E+02   0.140E-02 -.505E-02 0.102E-01   0.162E-05 0.233E-05 -.808E-04
   0.770E-02 -.855E-02 0.136E+02   -.341E-02 0.667E-02 -.136E+02   -.836E-03 0.577E-02 -.138E-01   -.452E-07 0.198E-05 0.792E-04
   -.530E-02 0.469E-02 0.170E+02   0.495E-02 -.242E-02 -.162E+02   -.384E-02 0.102E-04 -.857E+00   -.113E-05 0.163E-05 0.880E-04
   0.313E-02 0.101E-01 0.743E+01   -.164E-02 -.902E-02 -.742E+01   0.396E-02 -.116E-02 -.187E-01   0.415E-06 0.171E-05 0.405E-04
   0.726E-02 0.871E-02 0.103E+02   -.433E-02 -.826E-02 -.104E+02   -.703E-02 -.288E-02 0.888E-01   -.504E-06 0.180E-05 0.593E-04
   0.567E-02 -.867E-02 0.146E+01   -.321E-02 0.699E-02 -.149E+01   0.329E-03 0.330E-02 0.300E-01   -.125E-05 0.238E-05 0.104E-04
   -.293E-02 0.900E-02 0.450E+01   0.313E-02 -.834E-02 -.449E+01   -.732E-03 -.579E-02 -.966E-02   0.832E-07 0.261E-05 0.265E-04
   -.919E-02 0.251E-02 -.449E+01   0.785E-02 -.260E-02 0.449E+01   -.181E-02 -.231E-03 0.694E-02   -.300E-05 0.377E-06 -.237E-04
   0.932E-02 -.654E-02 -.146E+01   -.638E-02 0.521E-02 0.148E+01   -.332E-02 0.398E-03 -.264E-01   0.525E-06 0.103E-05 -.644E-05
   0.254E-02 0.121E-02 -.103E+02   -.484E-04 -.182E-02 0.104E+02   -.524E-04 0.543E-03 -.845E-01   -.586E-06 -.222E-05 -.610E-04
   0.684E-02 0.165E-02 -.743E+01   -.450E-02 -.164E-02 0.741E+01   -.258E-04 0.450E-02 0.203E-01   0.719E-06 -.293E-05 -.404E-04
   -.750E-02 0.745E-02 -.170E+02   0.575E-02 -.431E-02 0.162E+02   0.252E-02 -.422E-02 0.858E+00   0.582E-06 -.225E-05 -.883E-04
   0.123E-01 -.105E-01 -.136E+02   -.750E-02 0.842E-02 0.136E+02   -.279E-03 0.475E-02 0.126E-01   0.605E-06 -.374E-05 -.803E-04
   -.179E-01 0.127E-01 0.136E+02   0.123E-01 -.100E-01 -.136E+02   0.808E-02 -.105E-01 -.107E-01   0.510E-07 -.748E-06 0.797E-04
   0.139E-01 -.105E-02 0.170E+02   -.108E-01 0.736E-03 -.162E+02   -.480E-02 0.580E-03 -.856E+00   0.946E-06 -.299E-05 0.879E-04
   -.326E-02 -.732E-02 0.743E+01   0.200E-02 0.646E-02 -.742E+01   -.826E-03 -.627E-03 -.183E-01   0.507E-07 0.141E-05 0.413E-04
   0.154E-02 -.924E-02 0.103E+02   -.380E-02 0.853E-02 -.104E+02   -.257E-02 0.556E-02 0.774E-01   0.216E-05 -.392E-06 0.611E-04
   -.973E-02 0.482E-02 0.146E+01   0.680E-02 -.339E-02 -.149E+01   0.466E-02 -.144E-02 0.283E-01   0.933E-06 -.345E-06 0.925E-05
   0.394E-02 -.673E-02 0.450E+01   -.409E-02 0.647E-02 -.449E+01   0.765E-03 0.496E-02 -.953E-02   0.123E-05 0.207E-06 0.253E-04
   0.110E-01 -.771E-02 -.450E+01   -.912E-02 0.762E-02 0.449E+01   -.469E-02 0.221E-02 0.691E-02   0.197E-05 -.157E-05 -.247E-04
   -.593E-02 0.664E-02 -.146E+01   0.385E-02 -.493E-02 0.149E+01   -.482E-03 -.121E-02 -.300E-01   0.731E-06 -.227E-05 -.862E-05
   -.395E-02 -.414E-02 -.103E+02   0.136E-02 0.399E-02 0.104E+02   0.261E-03 0.812E-03 -.859E-01   0.141E-05 0.150E-05 -.618E-04
   -.886E-02 -.384E-02 -.743E+01   0.648E-02 0.388E-02 0.741E+01   -.731E-03 -.200E-02 0.162E-01   -.823E-06 0.124E-06 -.393E-04
   0.819E-02 -.978E-03 -.170E+02   -.639E-02 0.302E-04 0.162E+02   -.165E-02 -.156E-02 0.859E+00   -.247E-06 0.803E-06 -.865E-04
   -.167E-01 0.611E-02 -.136E+02   0.111E-01 -.492E-02 0.136E+02   0.436E-02 -.112E-02 0.754E-02   -.182E-05 0.230E-05 -.791E-04
 -----------------------------------------------------------------------------------------------
   0.344E-03 0.117E-02 0.164E-03   -.224E-15 -.930E-14 0.124E-13   -.290E-01 0.202E-01 -.621E-01   0.253E-07 0.740E-07 0.562E-04
 
 
 POSITION                                       TOTAL-FORCE (eV/Angst)
 -----------------------------------------------------------------------------------
     -0.00009      0.00129      8.24894         0.000530     -0.001172      0.000156
     -2.97086     -0.00234      6.24261        -0.000512     -0.000823      0.001408
      0.00050      0.00204     12.33993         0.001619     -0.001372      0.000486
     -2.96674      0.00278     10.20976         0.000387     -0.000630      0.008347
     -0.00065     -0.00167     16.50000         0.000323      0.000945     -0.003775
     -2.96692     -0.00018     14.44937         0.001379      0.000701     -0.001437
     -0.00229     -0.00243     20.62585         0.001167      0.000918      0.000449
     -2.96799     -0.00204     18.57744        -0.001923     -0.000210      0.000959
     -0.00039     -0.00128     24.86164         0.000937      0.001857     -0.006896
     -2.96942     -0.00030     22.73612         0.003046     -0.001845     -0.002291
     -0.00152     -0.00239     28.82392         0.000994      0.000290     -0.005308
     -2.96604     -0.00031     26.82452        -0.000893      0.001603      0.000978
     -2.94420      2.96160      8.25806         0.002822      0.003601     -0.002183
     -5.92357      2.97108      6.24554        -0.000200      0.004130      0.004303
     -2.94262      2.95719     12.35052         0.006038      0.002128      0.000410
     -5.90585      2.97516     10.23674        -0.004086     -0.004510      0.007697
     -2.93697      2.96922     16.48516         0.000199      0.000019      0.000859
     -5.90749      2.96696     14.42918        -0.004843     -0.004086      0.000581
     -2.94257      2.95983     20.64361        -0.003038      0.005329      0.001728
     -5.90252      2.96901     18.59164        -0.002313     -0.000221     -0.000695
     -2.93894      2.97293     24.83692        -0.003899     -0.004199     -0.007230
     -5.90540      2.95846     22.72043         0.002727      0.002521      0.004184
     -2.95861      2.97396     28.82865         0.001851     -0.003106     -0.004369
     -5.91073      2.96457     26.81169         0.003024      0.005842      0.001089
     -5.93321      0.00122      8.24849        -0.000767     -0.000797      0.000374
     -8.90648     -0.00328      6.24435        -0.000600     -0.000330      0.000949
     -5.93352      0.00069     12.34097         0.000431     -0.000404     -0.000783
     -8.90049      0.00283     10.20968         0.000169     -0.000936      0.008209
     -5.93449     -0.00111     16.49792        -0.001599     -0.001324      0.001563
     -8.90074      0.00091     14.44958         0.001967     -0.000635     -0.000401
     -5.93515     -0.00222     20.62654         0.000397      0.001834     -0.003789
     -8.90233     -0.00194     18.57603         0.001354      0.000541      0.004139
     -5.93328     -0.00015     24.85993        -0.000463      0.000266     -0.006365
     -8.90272     -0.00233     22.73760         0.002679      0.000633     -0.002611
     -5.93322      0.00032     28.82490         0.000604      0.000951     -0.006005
     -8.89967      0.00019     26.82531         0.000496     -0.000137      0.000054
     -5.95860      5.94017      8.25762         0.001705     -0.006590      0.001474
     -8.90920      5.92580      6.24668        -0.001746      0.000751      0.004811
     -5.95609      5.94604     12.35032        -0.002614     -0.002267     -0.002366
     -8.92428      5.92635     10.23798        -0.003039      0.001553      0.001874
     -5.96131      5.92763     16.48419        -0.002047      0.001566      0.002838
     -8.92288      5.93492     14.43056        -0.001484      0.005535      0.000219
     -5.95338      5.93301     20.64790        -0.003111      0.003092     -0.003081
     -8.92846      5.92722     18.59352        -0.001148      0.002123     -0.004086
     -5.95786      5.92736     24.83693        -0.001662     -0.000239     -0.002001
     -8.92374      5.94423     22.72617        -0.001475     -0.002234      0.001128
     -5.94007      5.92864     28.83027        -0.001961     -0.002994     -0.005546
     -8.91997      5.93399     26.81715        -0.001953      0.001163     -0.000354
     -8.87720      2.96138      8.25832         0.003898      0.003590     -0.000954
    -11.85656      2.97627      6.24819         0.000183     -0.001197      0.004293
     -8.87619      2.95760     12.35072         0.004064      0.003215      0.000815
    -11.84094      2.97791     10.23483        -0.002653     -0.002520      0.007742
     -8.86997      2.97052     16.48204        -0.000869      0.000535      0.002967
    -11.84776      2.97052     14.43192         0.001500     -0.001284      0.001679
     -8.87360      2.96289     20.64692        -0.003950      0.001292     -0.001279
    -11.83404      2.97101     18.59087        -0.002760     -0.000253      0.001192
     -8.87438      2.97313     24.83800         0.000317     -0.001843     -0.006576
    -11.83895      2.95815     22.72451         0.001347      0.000650      0.004413
     -8.89218      2.97247     28.82863         0.001867     -0.000695     -0.003847
    -11.84353      2.96296     26.81653         0.003710      0.001640      0.000655
    -11.86769      0.00091      8.24967        -0.001224     -0.000732     -0.000223
    -14.83745     -0.00403      6.24456        -0.001048      0.000115      0.001478
    -11.86565      0.00335     12.34066         0.001641     -0.002468      0.001534
    -14.83183      0.00305     10.21128        -0.000994     -0.000358      0.009919
    -11.86611     -0.00136     16.49905        -0.002853      0.002406      0.001151
    -14.83250      0.00178     14.45116        -0.000319     -0.001827     -0.001443
    -11.86995     -0.00100     20.62560         0.003178      0.000484      0.000451
    -14.83617     -0.00094     18.57792         0.003799     -0.003511     -0.001164
    -11.86908      0.00163     24.86301        -0.000263     -0.000300     -0.007842
    -14.83567     -0.00133     22.73584         0.001911     -0.000356     -0.000930
    -11.86564     -0.00275     28.82463        -0.000525      0.000356     -0.004401
    -14.83289      0.00059     26.82404        -0.000388     -0.000057      0.003459
    -11.89114      5.94105      8.25877         0.000478     -0.006335     -0.001844
    -14.84441      5.92657      6.24691         0.003441     -0.001965      0.007215
    -11.89243      5.94612     12.34911        -0.001185     -0.003737     -0.000143
    -14.85952      5.92622     10.23902         0.000185      0.005616      0.000343
    -11.89654      5.93006     16.48443         0.001185      0.001463      0.001904
    -14.85809      5.93391     14.43095         0.002333      0.003423      0.001150
    -11.88259      5.93308     20.64911        -0.000783      0.002110     -0.002012
    -14.86160      5.92758     18.59303        -0.001750      0.002097     -0.003165
    -11.89019      5.92903     24.83946         0.000436     -0.001810     -0.003068
    -14.85587      5.94345     22.72518        -0.002200     -0.002085      0.000624
    -11.87686      5.92774     28.82855         0.001803     -0.000922     -0.004736
    -14.85495      5.93647     26.81588        -0.003149     -0.003030      0.000506
    -14.81301      2.96296      8.25997         0.003713      0.003689     -0.001901
    -17.78935      2.97322      6.24605        -0.003933      0.002086      0.005690
    -14.80912      2.95866     12.35038         0.005720     -0.000295     -0.001542
    -17.77403      2.97704     10.23537        -0.003834     -0.002635      0.006597
    -14.80476      2.96771     16.48627         0.003056      0.001422      0.002748
    -17.77624      2.96752     14.43074        -0.000270     -0.005323      0.001567
    -14.80746      2.96306     20.64679        -0.002887     -0.000516     -0.002143
    -17.76910      2.97047     18.58999        -0.000116     -0.001127      0.001428
    -14.80836      2.97264     24.83672         0.002707     -0.000266     -0.002183
    -17.77324      2.95483     22.72160         0.002582      0.004311      0.003699
    -14.82439      2.97325     28.82944         0.001037     -0.001280     -0.004346
    -17.77694      2.96323     26.81519         0.004815      0.002435      0.002341
    -17.82561      5.94040      8.25851         0.002703     -0.008049      0.000143
    -20.77571      5.92617      6.24683        -0.001403      0.000061      0.005386
    -17.82503      5.94549     12.35058        -0.001821     -0.001676     -0.001219
    -20.78982      5.92495     10.23918        -0.004557      0.004650     -0.003833
    -17.82992      5.92900     16.48537         0.001994     -0.000209      0.001140
    -20.79051      5.93459     14.43069         0.000878      0.004494      0.000605
    -17.81840      5.93199     20.64771        -0.002546      0.001925     -0.002501
    -20.79290      5.92851     18.59388        -0.002288      0.000299     -0.002146
    -17.82375      5.92606     24.83852        -0.002064      0.000457     -0.003993
    -20.78934      5.94321     22.72546        -0.002851     -0.002164      0.000320
    -17.80805      5.92871     28.83009         0.000421     -0.002701     -0.003462
    -20.78929      5.93303     26.81555        -0.000890     -0.000127     -0.001951
 -----------------------------------------------------------------------------------
    total drift:                               -0.028675      0.021404     -0.061849


--------------------------------------------------------------------------------------------------------



  FREE ENERGIE OF THE ION-ELECTRON SYSTEM (eV)
  ---------------------------------------------------
  free  energy   TOTEN  =      -138.59750220 eV

  energy  without entropy=     -138.27413872  energy(sigma->0) =     -138.43582046
 
 d Force = 0.1541741E-02[ 0.634E-03, 0.245E-02]  d Energy = 0.1421169E-02 0.121E-03
 d Force =-0.2936319E+01[-0.294E+01,-0.293E+01]  d Ewald  =-0.2936320E+01 0.602E-06


--------------------------------------------------------------------------------------------------------


    POTLOK:  cpu time    0.1230: real time    0.1230


--------------------------------------------------------------------------------------------------------


 Conjugate gradient step on ions:
 trial-energy change:   -0.001421  1 .order   -0.001542   -0.002449   -0.000634
  (g-gl).g = 0.115E-03      g.g   = 0.166E-03  gl.gl    = 0.236E-03
 g(Force)  = 0.166E-03   g(Stress)= 0.000E+00 ortho     = 0.325E-05
 gamma     =   0.48655
 trial     =  14.61081
 opt step  =  19.71678  (harmonic =  19.71678) maximal distance =0.01015934
 next E    =  -138.597734   (d E  =  -0.00165)


--------------------------------------------------------------------------------------------------------


  
 reached required accuracy - stopping structural energy minimisation
     LOOP+:  cpu time   10.3234: real time   10.3536
    4ORBIT:  cpu time    0.0000: real time    0.0000

 total amount of memory used by VASP MPI-rank0    51934. kBytes
=======================================================================

   base      :      30000. kBytes
   nonlr-proj:       3079. kBytes
   fftplans  :       6320. kBytes
   grid      :       9491. kBytes
   one-center:          9. kBytes
   wavefun   :       3035. kBytes
 
  
  
 General timing and accounting informations for this job:
 ========================================================
  
                  Total CPU time used (sec):      468.287
                            User time (sec):      461.830
                          System time (sec):        6.457
                         Elapsed time (sec):      472.058
  
                   Maximum memory used (kb):      121972.
                   Average memory used (kb):          N/A
  
                          Minor page faults:      1012835
                          Major page faults:            0
                 Voluntary context switches:         4205
