<?xml version="1.0" encoding="ISO-8859-1"?>
<modeling>
 <generator>
  <i name="program" type="string">vasp </i>
  <i name="version" type="string">6.2.1  </i>
  <i name="subversion" type="string">16May21 (build Dec 23 2021 00:35:04) complex                          parallel </i>
  <i name="platform" type="string">LinuxIFC </i>
  <i name="date" type="string">2023 03 28 </i>
  <i name="time" type="string">00:16:18 </i>
 </generator>
 <incar>
  <i type="string" name="PREC">Normal</i>
  <i type="string" name="ALGO">Fast</i>
  <i type="int" name="ISPIN">     0</i>
  <i name="AMIN">      0.01000000</i>
  <i type="int" name="NELM">   150</i>
  <i type="int" name="IBRION">     2</i>
  <i name="EDIFF">      0.00000001</i>
  <i name="EDIFFG">     -0.01000000</i>
  <i type="int" name="NSW">   800</i>
  <i type="int" name="ISIF">     2</i>
  <i type="int" name="ISYM">     0</i>
  <i name="ENCUT">    400.00000000</i>
  <i type="string" name="LREAL">AUTO</i>
  <i type="int" name="ISMEAR">     0</i>
  <i name="SIGMA">      0.10000000</i>
  <i name="KSPACING">      0.50000000</i>
  <i type="logical" name="KGAMMA"> T  </i>
  <i type="int" name="NWRITE">     1</i>
  <i type="int" name="LMAXMIX">     6</i>
  <i type="logical" name="LWAVE"> F  </i>
  <i type="logical" name="LCHARG"> F  </i>
  <i type="logical" name="LASPH"> T  </i>
  <i type="string" name="GGA">PE</i>
  <i type="logical" name="LDIPOL"> T  </i>
  <i type="int" name="IDIPOL">     3</i>
  <v name="DIPOL">      0.44440000      0.41670000      0.50000000</v>
 </incar>
 <primitive_cell>
  <structure name="primitive_cell" >
   <crystal>
    <varray name="basis" >
     <v>      -8.89989772       8.89989772       0.00000000 </v>
     <v>     -17.79979544      -0.00000000       0.00000000 </v>
     <v>       0.00000000       0.00000000      35.07498221 </v>
    </varray>
    <i name="volume">   5556.45096937 </i>
    <varray name="rec_basis" >
     <v>      -0.00000000       0.11236084       0.00000000 </v>
     <v>      -0.05618042      -0.05618042       0.00000000 </v>
     <v>       0.00000000       0.00000000       0.02851035 </v>
    </varray>
   </crystal>
   <varray name="positions" >
    <v>       1.00000000       0.00000003       0.23086889 </v>
    <v>       1.00000000       0.16666698       0.17106210 </v>
    <v>       1.00000000       0.00000003       0.35048270 </v>
    <v>       1.00000000       0.16666698       0.29067590 </v>
    <v>       1.00000000       0.00000003       0.47009650 </v>
    <v>       1.00000000       0.16666698       0.41028970 </v>
    <v>       1.00000000       0.00000003       0.58971030 </v>
    <v>       1.00000000       0.16666698       0.52990350 </v>
    <v>       1.00000000       0.00000003       0.70932410 </v>
    <v>       1.00000000       0.16666698       0.64951730 </v>
    <v>       1.00000000       0.00000003       0.82893790 </v>
    <v>       1.00000000       0.16666698       0.76913111 </v>
    <v>       0.33333333       0.00000003       0.23086889 </v>
    <v>       0.33333333       0.16666698       0.17106210 </v>
    <v>       0.33333333       0.00000003       0.35048270 </v>
    <v>       0.33333333       0.16666698       0.29067590 </v>
    <v>       0.33333333       0.00000003       0.47009650 </v>
    <v>       0.33333333       0.16666698       0.41028970 </v>
    <v>       0.33333333       0.00000003       0.58971030 </v>
    <v>       0.33333333       0.16666698       0.52990350 </v>
    <v>       0.33333333       0.00000003       0.70932410 </v>
    <v>       0.33333333       0.16666698       0.64951730 </v>
    <v>       0.33333333       0.00000003       0.82893790 </v>
    <v>       0.33333333       0.16666698       0.76913111 </v>
    <v>       1.00000000       0.33333337       0.23086889 </v>
    <v>       1.00000000       0.50000032       0.17106210 </v>
    <v>       1.00000000       0.33333337       0.35048270 </v>
    <v>       1.00000000       0.50000032       0.29067590 </v>
    <v>       1.00000000       0.33333337       0.47009650 </v>
    <v>       1.00000000       0.50000032       0.41028970 </v>
    <v>       1.00000000       0.33333337       0.58971030 </v>
    <v>       1.00000000       0.50000032       0.52990350 </v>
    <v>       1.00000000       0.33333337       0.70932410 </v>
    <v>       1.00000000       0.50000032       0.64951730 </v>
    <v>       1.00000000       0.33333337       0.82893790 </v>
    <v>       1.00000000       0.50000032       0.76913111 </v>
    <v>       0.66666667       0.00000003       0.23086889 </v>
    <v>       0.66666667       0.16666698       0.17106210 </v>
    <v>       0.66666667       0.00000003       0.35048270 </v>
    <v>       0.66666667       0.16666698       0.29067590 </v>
    <v>       0.66666667       0.00000003       0.47009650 </v>
    <v>       0.66666667       0.16666698       0.41028970 </v>
    <v>       0.66666667       0.00000003       0.58971030 </v>
    <v>       0.66666667       0.16666698       0.52990350 </v>
    <v>       0.66666667       0.00000003       0.70932410 </v>
    <v>       0.66666667       0.16666698       0.64951730 </v>
    <v>       0.66666667       0.00000003       0.82893790 </v>
    <v>       0.66666667       0.16666698       0.76913111 </v>
    <v>       0.33333333       0.33333337       0.23086889 </v>
    <v>       0.33333333       0.50000032       0.17106210 </v>
    <v>       0.33333333       0.33333337       0.35048270 </v>
    <v>       0.33333333       0.50000032       0.29067590 </v>
    <v>       0.33333333       0.33333337       0.47009650 </v>
    <v>       0.33333333       0.50000032       0.41028970 </v>
    <v>       0.33333333       0.33333337       0.58971030 </v>
    <v>       0.33333333       0.50000032       0.52990350 </v>
    <v>       0.33333333       0.33333337       0.70932410 </v>
    <v>       0.33333333       0.50000032       0.64951730 </v>
    <v>       0.33333333       0.33333337       0.82893790 </v>
    <v>       0.33333333       0.50000032       0.76913111 </v>
    <v>       1.00000000       0.66666670       0.23086889 </v>
    <v>       1.00000000       0.83333365       0.17106210 </v>
    <v>       1.00000000       0.66666670       0.35048270 </v>
    <v>       1.00000000       0.83333365       0.29067590 </v>
    <v>       1.00000000       0.66666670       0.47009650 </v>
    <v>       1.00000000       0.83333365       0.41028970 </v>
    <v>       1.00000000       0.66666670       0.58971030 </v>
    <v>       1.00000000       0.83333365       0.52990350 </v>
    <v>       1.00000000       0.66666670       0.70932410 </v>
    <v>       1.00000000       0.83333365       0.64951730 </v>
    <v>       1.00000000       0.66666670       0.82893790 </v>
    <v>       1.00000000       0.83333365       0.76913111 </v>
    <v>       0.66666667       0.33333337       0.23086889 </v>
    <v>       0.66666667       0.50000032       0.17106210 </v>
    <v>       0.66666667       0.33333337       0.35048270 </v>
    <v>       0.66666667       0.50000032       0.29067590 </v>
    <v>       0.66666667       0.33333337       0.47009650 </v>
    <v>       0.66666667       0.50000032       0.41028970 </v>
    <v>       0.66666667       0.33333337       0.58971030 </v>
    <v>       0.66666667       0.50000032       0.52990350 </v>
    <v>       0.66666667       0.33333337       0.70932410 </v>
    <v>       0.66666667       0.50000032       0.64951730 </v>
    <v>       0.66666667       0.33333337       0.82893790 </v>
    <v>       0.66666667       0.50000032       0.76913111 </v>
    <v>       0.33333333       0.66666670       0.23086889 </v>
    <v>       0.33333333       0.83333365       0.17106210 </v>
    <v>       0.33333333       0.66666670       0.35048270 </v>
    <v>       0.33333333       0.83333365       0.29067590 </v>
    <v>       0.33333333       0.66666670       0.47009650 </v>
    <v>       0.33333333       0.83333365       0.41028970 </v>
    <v>       0.33333333       0.66666670       0.58971030 </v>
    <v>       0.33333333       0.83333365       0.52990350 </v>
    <v>       0.33333333       0.66666670       0.70932410 </v>
    <v>       0.33333333       0.83333365       0.64951730 </v>
    <v>       0.33333333       0.66666670       0.82893790 </v>
    <v>       0.33333333       0.83333365       0.76913111 </v>
    <v>       0.66666667       0.66666670       0.23086889 </v>
    <v>       0.66666667       0.83333365       0.17106210 </v>
    <v>       0.66666667       0.66666670       0.35048270 </v>
    <v>       0.66666667       0.83333365       0.29067590 </v>
    <v>       0.66666667       0.66666670       0.47009650 </v>
    <v>       0.66666667       0.83333365       0.41028970 </v>
    <v>       0.66666667       0.66666670       0.58971030 </v>
    <v>       0.66666667       0.83333365       0.52990350 </v>
    <v>       0.66666667       0.66666670       0.70932410 </v>
    <v>       0.66666667       0.83333365       0.64951730 </v>
    <v>       0.66666667       0.66666670       0.82893790 </v>
    <v>       0.66666667       0.83333365       0.76913111 </v>
   </varray>
  </structure>
  <varray name="primitive_index" >
   <v type="int" >        1 </v>
   <v type="int" >        2 </v>
   <v type="int" >        3 </v>
   <v type="int" >        4 </v>
   <v type="int" >        5 </v>
   <v type="int" >        6 </v>
   <v type="int" >        7 </v>
   <v type="int" >        8 </v>
   <v type="int" >        9 </v>
   <v type="int" >       10 </v>
   <v type="int" >       11 </v>
   <v type="int" >       12 </v>
   <v type="int" >       13 </v>
   <v type="int" >       14 </v>
   <v type="int" >       15 </v>
   <v type="int" >       16 </v>
   <v type="int" >       17 </v>
   <v type="int" >       18 </v>
   <v type="int" >       19 </v>
   <v type="int" >       20 </v>
   <v type="int" >       21 </v>
   <v type="int" >       22 </v>
   <v type="int" >       23 </v>
   <v type="int" >       24 </v>
   <v type="int" >       25 </v>
   <v type="int" >       26 </v>
   <v type="int" >       27 </v>
   <v type="int" >       28 </v>
   <v type="int" >       29 </v>
   <v type="int" >       30 </v>
   <v type="int" >       31 </v>
   <v type="int" >       32 </v>
   <v type="int" >       33 </v>
   <v type="int" >       34 </v>
   <v type="int" >       35 </v>
   <v type="int" >       36 </v>
   <v type="int" >       37 </v>
   <v type="int" >       38 </v>
   <v type="int" >       39 </v>
   <v type="int" >       40 </v>
   <v type="int" >       41 </v>
   <v type="int" >       42 </v>
   <v type="int" >       43 </v>
   <v type="int" >       44 </v>
   <v type="int" >       45 </v>
   <v type="int" >       46 </v>
   <v type="int" >       47 </v>
   <v type="int" >       48 </v>
   <v type="int" >       49 </v>
   <v type="int" >       50 </v>
   <v type="int" >       51 </v>
   <v type="int" >       52 </v>
   <v type="int" >       53 </v>
   <v type="int" >       54 </v>
   <v type="int" >       55 </v>
   <v type="int" >       56 </v>
   <v type="int" >       57 </v>
   <v type="int" >       58 </v>
   <v type="int" >       59 </v>
   <v type="int" >       60 </v>
   <v type="int" >       61 </v>
   <v type="int" >       62 </v>
   <v type="int" >       63 </v>
   <v type="int" >       64 </v>
   <v type="int" >       65 </v>
   <v type="int" >       66 </v>
   <v type="int" >       67 </v>
   <v type="int" >       68 </v>
   <v type="int" >       69 </v>
   <v type="int" >       70 </v>
   <v type="int" >       71 </v>
   <v type="int" >       72 </v>
   <v type="int" >       73 </v>
   <v type="int" >       74 </v>
   <v type="int" >       75 </v>
   <v type="int" >       76 </v>
   <v type="int" >       77 </v>
   <v type="int" >       78 </v>
   <v type="int" >       79 </v>
   <v type="int" >       80 </v>
   <v type="int" >       81 </v>
   <v type="int" >       82 </v>
   <v type="int" >       83 </v>
   <v type="int" >       84 </v>
   <v type="int" >       85 </v>
   <v type="int" >       86 </v>
   <v type="int" >       87 </v>
   <v type="int" >       88 </v>
   <v type="int" >       89 </v>
   <v type="int" >       90 </v>
   <v type="int" >       91 </v>
   <v type="int" >       92 </v>
   <v type="int" >       93 </v>
   <v type="int" >       94 </v>
   <v type="int" >       95 </v>
   <v type="int" >       96 </v>
   <v type="int" >       97 </v>
   <v type="int" >       98 </v>
   <v type="int" >       99 </v>
   <v type="int" >      100 </v>
   <v type="int" >      101 </v>
   <v type="int" >      102 </v>
   <v type="int" >      103 </v>
   <v type="int" >      104 </v>
   <v type="int" >      105 </v>
   <v type="int" >      106 </v>
   <v type="int" >      107 </v>
   <v type="int" >      108 </v>
  </varray>
 </primitive_cell>
 <kpoints>
  <generation param="Gamma">
   <v type="int" name="divisions">       2        1        1 </v>
   <v name="usershift">      0.00000000       0.00000000       0.00000000 </v>
   <v name="genvec1">      0.50000000      -0.00000000       0.00000000 </v>
   <v name="genvec2">      0.00000000       1.00000000       0.00000000 </v>
   <v name="genvec3">      0.00000000       0.00000000       1.00000000 </v>
   <v name="shift">      0.00000000       0.00000000       0.00000000 </v>
  </generation>
  <varray name="kpointlist" >
   <v>       0.00000000       0.00000000       0.00000000 </v>
   <v>       0.50000000       0.00000000       0.00000000 </v>
  </varray>
  <varray name="weights" >
   <v>       0.50000000 </v>
   <v>       0.50000000 </v>
  </varray>
 </kpoints>
 <parameters>
  <separator name="general" >
   <i type="string" name="SYSTEM">unknown system</i>
   <i type="logical" name="LCOMPAT"> F  </i>
  </separator>
  <separator name="electronic" >
   <i type="string" name="PREC">normal</i>
   <i name="ENMAX">    400.00000000</i>
   <i name="ENAUG">    250.69500000</i>
   <i name="EDIFF">      0.00000001</i>
   <i type="int" name="IALGO">    68</i>
   <i type="int" name="IWAVPR">    11</i>
   <i type="int" name="NBANDS">   112</i>
   <i type="int" name="NBANDSLOW">    -1</i>
   <i type="int" name="NBANDSHIGH">    -1</i>
   <i name="NELECT">    108.00000000</i>
   <i type="int" name="TURBO">     0</i>
   <i type="int" name="IRESTART">     0</i>
   <i type="int" name="NREBOOT">     0</i>
   <i type="int" name="NMIN">     0</i>
   <i name="EREF">      0.00000000</i>
   <separator name="electronic smearing" >
    <i type="int" name="ISMEAR">     0</i>
    <i name="SIGMA">      0.10000000</i>
    <i name="KSPACING">      0.50000000</i>
    <i type="logical" name="KGAMMA"> T  </i>
    <i type="logical" name="KBLOWUP"> T  </i>
   </separator>
   <separator name="electronic projectors" >
    <i type="logical" name="LREAL"> T  </i>
    <v name="ROPT">     -0.00050000</v>
    <i type="int" name="LMAXPAW">  -100</i>
    <i type="int" name="LMAXMIX">     6</i>
    <i type="logical" name="NLSPLINE"> F  </i>
   </separator>
   <separator name="electronic startup" >
    <i type="int" name="ISTART">     0</i>
    <i type="int" name="ICHARG">     2</i>
    <i type="int" name="INIWAV">     1</i>
   </separator>
   <separator name="electronic spin" >
    <i type="int" name="ISPIN">     1</i>
    <i type="logical" name="LNONCOLLINEAR"> F  </i>
    <v name="MAGMOM">      1.00000000      1.00000000      1.00000000      1.00000000      1.00000000      1.00000000      1.00000000      1.00000000      1.00000000      1.00000000      1.00000000      1.00000000      1.00000000      1.00000000      1.00000000      1.00000000      1.00000000      1.00000000      1.00000000      1.00000000
      1.00000000      1.00000000      1.00000000      1.00000000      1.00000000      1.00000000      1.00000000      1.00000000      1.00000000      1.00000000      1.00000000      1.00000000      1.00000000      1.00000000      1.00000000      1.00000000      1.00000000      1.00000000      1.00000000      1.00000000
      1.00000000      1.00000000      1.00000000      1.00000000      1.00000000      1.00000000      1.00000000      1.00000000      1.00000000      1.00000000      1.00000000      1.00000000      1.00000000      1.00000000      1.00000000      1.00000000      1.00000000      1.00000000      1.00000000      1.00000000
      1.00000000      1.00000000      1.00000000      1.00000000      1.00000000      1.00000000      1.00000000      1.00000000      1.00000000      1.00000000      1.00000000      1.00000000      1.00000000      1.00000000      1.00000000      1.00000000      1.00000000      1.00000000      1.00000000      1.00000000
      1.00000000      1.00000000      1.00000000      1.00000000      1.00000000      1.00000000      1.00000000      1.00000000      1.00000000      1.00000000      1.00000000      1.00000000      1.00000000      1.00000000      1.00000000      1.00000000      1.00000000      1.00000000      1.00000000      1.00000000
      1.00000000      1.00000000      1.00000000      1.00000000      1.00000000      1.00000000      1.00000000      1.00000000</v>
    <i name="NUPDOWN">     -1.00000000</i>
    <i type="logical" name="LSORBIT"> F  </i>
    <v name="SAXIS">      0.00000000      0.00000000      1.00000000</v>
    <i type="logical" name="LSPIRAL"> F  </i>
    <v name="QSPIRAL">      0.00000000      0.00000000      0.00000000</v>
    <i type="logical" name="LZEROZ"> F  </i>
   </separator>
   <separator name="electronic exchange-correlation" >
    <i type="logical" name="LASPH"> T  </i>
    <i type="logical" name="LMETAGGA"> F  </i>
   </separator>
   <separator name="electronic convergence" >
    <i type="int" name="NELM">   150</i>
    <i type="int" name="NELMDL">     0</i>
    <i type="int" name="NELMIN">     2</i>
    <i name="ENINI">    400.00000000</i>
    <separator name="electronic convergence detail" >
     <i type="logical" name="LDIAG"> T  </i>
     <i type="logical" name="LSUBROT"> F  </i>
     <i name="WEIMIN">      0.00100000</i>
     <i name="EBREAK">      0.00000000</i>
     <i name="DEPER">      0.30000000</i>
     <i type="int" name="NRMM">     4</i>
     <i name="TIME">      0.40000000</i>
    </separator>
   </separator>
   <separator name="electronic mixer" >
    <i name="AMIX">      0.40000000</i>
    <i name="BMIX">      1.00000000</i>
    <i name="AMIN">      0.01000000</i>
    <i name="AMIX_MAG">      1.60000000</i>
    <i name="BMIX_MAG">      1.00000000</i>
    <separator name="electronic mixer details" >
     <i type="int" name="IMIX">     4</i>
     <i type="logical" name="MIXFIRST"> F  </i>
     <i type="int" name="MAXMIX">   -45</i>
     <i name="WC">    100.00000000</i>
     <i type="int" name="INIMIX">     1</i>
     <i type="int" name="MIXPRE">     1</i>
     <i type="int" name="MREMOVE">     5</i>
    </separator>
   </separator>
   <separator name="electronic dipolcorrection" >
    <i type="logical" name="LDIPOL"> T  </i>
    <i type="logical" name="LMONO"> F  </i>
    <i type="int" name="IDIPOL">     3</i>
    <i name="EPSILON">      1.00000000</i>
    <v name="DIPOL">      0.44440000      0.41670000      0.50000000</v>
    <i name="EFIELD">      0.00000000</i>
   </separator>
  </separator>
  <separator name="grids" >
   <i type="int" name="NGX">    64</i>
   <i type="int" name="NGY">    90</i>
   <i type="int" name="NGZ">   180</i>
   <i type="int" name="NGXF">   128</i>
   <i type="int" name="NGYF">   180</i>
   <i type="int" name="NGZF">   360</i>
   <i type="logical" name="ADDGRID"> F  </i>
  </separator>
  <separator name="ionic" >
   <i type="int" name="NSW">   800</i>
   <i type="int" name="IBRION">     2</i>
   <i type="int" name="MDALGO">     0</i>
   <i type="int" name="ISIF">     2</i>
   <i name="PSTRESS">      0.00000000</i>
   <i name="EDIFFG">     -0.01000000</i>
   <i type="int" name="NFREE">     1</i>
   <i name="POTIM">      0.50000000</i>
   <i name="SMASS">     -3.00000000</i>
   <i name="SCALEE">      1.00000000</i>
  </separator>
  <separator name="ionic md" >
   <i name="TEBEG">      0.00010000</i>
   <i name="TEEND">      0.00010000</i>
   <i type="int" name="NBLOCK">     1</i>
   <i type="int" name="KBLOCK">   800</i>
   <i type="int" name="NPACO">   256</i>
   <i name="APACO">     16.00000000</i>
  </separator>
  <separator name="symmetry" >
   <i type="int" name="ISYM">     0</i>
   <i name="SYMPREC">      0.00001000</i>
  </separator>
  <separator name="dos" >
   <i type="int" name="LORBIT">     0</i>
   <v name="RWIGS">     -1.00000000</v>
   <i type="int" name="NEDOS">   301</i>
   <i name="EMIN">     10.00000000</i>
   <i name="EMAX">    -10.00000000</i>
   <i name="EFERMI">      0.00000000</i>
  </separator>
  <separator name="writing" >
   <i type="int" name="NWRITE">     1</i>
   <i type="logical" name="LWAVE"> F  </i>
   <i type="logical" name="LDOWNSAMPLE"> F  </i>
   <i type="logical" name="LCHARG"> F  </i>
   <i type="logical" name="LPARD"> F  </i>
   <i type="logical" name="LVTOT"> F  </i>
   <i type="logical" name="LVHAR"> F  </i>
   <i type="logical" name="LELF"> F  </i>
   <i type="logical" name="LOPTICS"> F  </i>
   <v name="STM">      0.00000000      0.00000000      0.00000000      0.00000000      0.00000000      0.00000000      0.00000000</v>
  </separator>
  <separator name="performance" >
   <i type="int" name="NPAR">     8</i>
   <i type="int" name="NSIM">     4</i>
   <i type="int" name="NBLK">    -1</i>
   <i type="logical" name="LPLANE"> T  </i>
   <i type="logical" name="LSCALAPACK"> T  </i>
   <i type="logical" name="LSCAAWARE"> F  </i>
   <i type="logical" name="LSCALU"> F  </i>
   <i type="logical" name="LASYNC"> F  </i>
   <i type="logical" name="LORBITALREAL"> F  </i>
  </separator>
  <separator name="miscellaneous" >
   <i type="int" name="IDIOT">     3</i>
   <i type="int" name="PHON_NSTRUCT">    -1</i>
   <i type="logical" name="LMUSIC"> F  </i>
   <v name="POMASS">     22.99000000</v>
   <v name="DARWINR">      0.00000000</v>
   <v name="DARWINV">      1.00000000</v>
   <i type="logical" name="LCORR"> T  </i>
  </separator>
  <i type="logical" name="GGA_COMPAT"> T  </i>
  <i type="logical" name="LBERRY"> F  </i>
  <i type="int" name="ICORELEVEL">     0</i>
  <i type="logical" name="LDAU"> F  </i>
  <i type="int" name="I_CONSTRAINED_M">     0</i>
  <separator name="electronic exchange-correlation" >
   <i type="string" name="GGA">PE</i>
   <i type="int" name="VOSKOWN">     0</i>
   <i type="logical" name="LHFCALC"> F  </i>
   <i type="string" name="PRECFOCK"></i>
   <i type="logical" name="LSYMGRAD"> F  </i>
   <i type="logical" name="LHFONE"> F  </i>
   <i type="logical" name="LRHFCALC"> F  </i>
   <i type="logical" name="LTHOMAS"> F  </i>
   <i type="logical" name="LMODELHF"> F  </i>
   <i type="logical" name="LFOCKACE"> F  </i>
   <i name="ENCUT4O">     -1.00000000</i>
   <i type="int" name="EXXOEP">     0</i>
   <i type="int" name="FOURORBIT">     0</i>
   <i name="AEXX">      0.00000000</i>
   <i name="HFALPHA">      0.00000000</i>
   <i name="MCALPHA">      0.00000000</i>
   <i name="ALDAX">      1.00000000</i>
   <i name="AGGAX">      1.00000000</i>
   <i name="ALDAC">      1.00000000</i>
   <i name="AGGAC">      1.00000000</i>
   <i type="int" name="NKREDX">     1</i>
   <i type="int" name="NKREDY">     1</i>
   <i type="int" name="NKREDZ">     1</i>
   <i type="logical" name="SHIFTRED"> F  </i>
   <i type="logical" name="ODDONLY"> F  </i>
   <i type="logical" name="EVENONLY"> F  </i>
   <i type="int" name="LMAXFOCK">     0</i>
   <i type="int" name="NMAXFOCKAE">     0</i>
   <i type="logical" name="LFOCKAEDFT"> F  </i>
   <i name="HFSCREEN">      0.00000000</i>
   <i name="HFSCREENC">      0.00000000</i>
   <i type="int" name="NBANDSGWLOW">     0</i>
  </separator>
  <separator name="vdW DFT" >
   <i type="logical" name="LUSE_VDW"> F  </i>
   <i name="Zab_VDW">     -0.84910000</i>
   <i name="PARAM1">      0.12340000</i>
   <i name="PARAM2">      1.00000000</i>
   <i name="PARAM3">      0.00000000</i>
  </separator>
  <separator name="model GW" >
   <i type="int" name="MODEL_GW">     0</i>
   <i name="MODEL_EPS0">     30.86917205</i>
   <i name="MODEL_ALPHA">      1.00000000</i>
  </separator>
  <separator name="linear response parameters" >
   <i type="logical" name="LEPSILON"> F  </i>
   <i type="logical" name="LRPA"> F  </i>
   <i type="logical" name="LNABLA"> F  </i>
   <i type="logical" name="LVEL"> F  </i>
   <i type="int" name="KINTER">     0</i>
   <i name="CSHIFT">      0.10000000</i>
   <i name="OMEGAMAX">     -1.00000000</i>
   <i name="DEG_THRESHOLD">      0.00200000</i>
   <i name="RTIME">     -0.10000000</i>
   <i name="WPLASMAI">      0.00000000</i>
   <v name="DFIELD">      0.00000000      0.00000000      0.00000000</v>
   <v name="WPLASMA">      0.00000000      0.00000000      0.00000000      0.00000000      0.00000000      0.00000000      0.00000000      0.00000000      0.00000000</v>
  </separator>
  <separator name="orbital magnetization" >
   <i type="logical" name="NUCIND"> F  </i>
   <v name="MAGPOS">      0.00000000      0.00000000      0.00000000</v>
   <i type="logical" name="LNICSALL"> T  </i>
   <i type="logical" name="ORBITALMAG"> F  </i>
   <i type="logical" name="LMAGBLOCH"> F  </i>
   <i type="logical" name="LCHIMAG"> F  </i>
   <i type="logical" name="LGAUGE"> T  </i>
   <i type="int" name="MAGATOM">     0</i>
   <v name="MAGDIPOL">      0.00000000      0.00000000      0.00000000</v>
   <v name="AVECCONST">      0.00000000      0.00000000      0.00000000</v>
  </separator>
  <separator name="response functions" >
   <i type="logical" name="LFINITE_TEMPERATURE"> F  </i>
   <i type="logical" name="LADDER"> F  </i>
   <i type="logical" name="LRPAFORCE"> F  </i>
   <i type="logical" name="LFXC"> F  </i>
   <i type="logical" name="LHARTREE"> T  </i>
   <i type="int" name="IBSE">     0</i>
   <v type="int" name="KPOINT">    -1     0     0     0</v>
   <i type="logical" name="LTCTC"> F  </i>
   <i type="logical" name="LTCTE"> F  </i>
   <i type="logical" name="LTETE"> F  </i>
   <i type="logical" name="LTRIPLET"> F  </i>
   <i type="logical" name="LFXCEPS"> F  </i>
   <i type="logical" name="LFXHEG"> F  </i>
   <i type="int" name="NATURALO">     2</i>
   <i type="logical" name="LHOLEGF"> F  </i>
   <i type="logical" name="L2ORDER"> F  </i>
   <i type="logical" name="LDMP1"> F  </i>
   <i type="logical" name="LMP2LT"> F  </i>
   <i type="logical" name="LSMP2LT"> F  </i>
   <i type="logical" name="LGWLF"> F  </i>
   <i name="ENCUTGW">     -2.00000000</i>
   <i name="ENCUTGWSOFT">     -2.00000000</i>
   <i name="ENCUTLF">     -1.00000000</i>
   <i type="logical" name="LESF_SPLINES"> F  </i>
   <i type="int" name="LMAXMP2">    -1</i>
   <i name="SCISSOR">      0.00000000</i>
   <i type="int" name="NOMEGA">     0</i>
   <i type="int" name="NOMEGAR">     0</i>
   <i type="int" name="NBANDSGW">    -1</i>
   <i type="int" name="NBANDSO">    -1</i>
   <i type="int" name="NBANDSV">    -1</i>
   <i type="int" name="NELM">   150</i>
   <i type="int" name="NELMHF">     1</i>
   <i type="int" name="DIM">     3</i>
   <i type="int" name="IESPILON">     4</i>
   <i type="int" name="ANTIRES">     0</i>
   <i name="OMEGAMAX">    -30.00000000</i>
   <i name="OMEGAMIN">    -30.00000000</i>
   <i name="OMEGATL">   -200.00000000</i>
   <i type="int" name="OMEGAGRID">     0</i>
   <i name="CSHIFT">     -0.10000000</i>
   <i type="logical" name="LSELFENERGY"> F  </i>
   <i type="logical" name="LSPECTRAL"> F  </i>
   <i type="logical" name="LSPECTRALGW"> F  </i>
   <i type="logical" name="LSINGLES"> F  </i>
   <i type="logical" name="LFERMIGW"> F  </i>
   <i type="logical" name="ODDONLYGW"> F  </i>
   <i type="logical" name="EVENONLYGW"> F  </i>
   <i type="int" name="NKREDLFX">     1</i>
   <i type="int" name="NKREDLFY">     1</i>
   <i type="int" name="NKREDLFZ">     1</i>
   <i type="int" name="MAXMEM">  2800</i>
   <i type="int" name="TELESCOPE">     0</i>
   <i type="int" name="NTAUPAR">    -1</i>
   <i type="int" name="NOMEGAPAR">    -1</i>
   <i name="DAMP_NEWTON">      0.80000001</i>
   <i name="LAMBDA">      1.00000000</i>
  </separator>
  <separator name="External order field" >
   <i name="OFIELD_KAPPA">      0.00000000</i>
   <v name="OFIELD_K">      0.00000000      0.00000000      0.00000000</v>
   <i name="OFIELD_Q6_NEAR">      0.00000000</i>
   <i name="OFIELD_Q6_FAR">      0.00000000</i>
   <i name="OFIELD_A">      0.00000000</i>
  </separator>
 </parameters>
 <atominfo>
  <atoms>     108 </atoms>
  <types>       1 </types>
  <array name="atoms" >
   <dimension dim="1">ion</dimension>
   <field type="string">element</field>
   <field type="int">atomtype</field>
   <set>
    <rc><c>Na</c><c>   1</c></rc>
    <rc><c>Na</c><c>   1</c></rc>
    <rc><c>Na</c><c>   1</c></rc>
    <rc><c>Na</c><c>   1</c></rc>
    <rc><c>Na</c><c>   1</c></rc>
    <rc><c>Na</c><c>   1</c></rc>
    <rc><c>Na</c><c>   1</c></rc>
    <rc><c>Na</c><c>   1</c></rc>
    <rc><c>Na</c><c>   1</c></rc>
    <rc><c>Na</c><c>   1</c></rc>
    <rc><c>Na</c><c>   1</c></rc>
    <rc><c>Na</c><c>   1</c></rc>
    <rc><c>Na</c><c>   1</c></rc>
    <rc><c>Na</c><c>   1</c></rc>
    <rc><c>Na</c><c>   1</c></rc>
    <rc><c>Na</c><c>   1</c></rc>
    <rc><c>Na</c><c>   1</c></rc>
    <rc><c>Na</c><c>   1</c></rc>
    <rc><c>Na</c><c>   1</c></rc>
    <rc><c>Na</c><c>   1</c></rc>
    <rc><c>Na</c><c>   1</c></rc>
    <rc><c>Na</c><c>   1</c></rc>
    <rc><c>Na</c><c>   1</c></rc>
    <rc><c>Na</c><c>   1</c></rc>
    <rc><c>Na</c><c>   1</c></rc>
    <rc><c>Na</c><c>   1</c></rc>
    <rc><c>Na</c><c>   1</c></rc>
    <rc><c>Na</c><c>   1</c></rc>
    <rc><c>Na</c><c>   1</c></rc>
    <rc><c>Na</c><c>   1</c></rc>
    <rc><c>Na</c><c>   1</c></rc>
    <rc><c>Na</c><c>   1</c></rc>
    <rc><c>Na</c><c>   1</c></rc>
    <rc><c>Na</c><c>   1</c></rc>
    <rc><c>Na</c><c>   1</c></rc>
    <rc><c>Na</c><c>   1</c></rc>
    <rc><c>Na</c><c>   1</c></rc>
    <rc><c>Na</c><c>   1</c></rc>
    <rc><c>Na</c><c>   1</c></rc>
    <rc><c>Na</c><c>   1</c></rc>
    <rc><c>Na</c><c>   1</c></rc>
    <rc><c>Na</c><c>   1</c></rc>
    <rc><c>Na</c><c>   1</c></rc>
    <rc><c>Na</c><c>   1</c></rc>
    <rc><c>Na</c><c>   1</c></rc>
    <rc><c>Na</c><c>   1</c></rc>
    <rc><c>Na</c><c>   1</c></rc>
    <rc><c>Na</c><c>   1</c></rc>
    <rc><c>Na</c><c>   1</c></rc>
    <rc><c>Na</c><c>   1</c></rc>
    <rc><c>Na</c><c>   1</c></rc>
    <rc><c>Na</c><c>   1</c></rc>
    <rc><c>Na</c><c>   1</c></rc>
    <rc><c>Na</c><c>   1</c></rc>
    <rc><c>Na</c><c>   1</c></rc>
    <rc><c>Na</c><c>   1</c></rc>
    <rc><c>Na</c><c>   1</c></rc>
    <rc><c>Na</c><c>   1</c></rc>
    <rc><c>Na</c><c>   1</c></rc>
    <rc><c>Na</c><c>   1</c></rc>
    <rc><c>Na</c><c>   1</c></rc>
    <rc><c>Na</c><c>   1</c></rc>
    <rc><c>Na</c><c>   1</c></rc>
    <rc><c>Na</c><c>   1</c></rc>
    <rc><c>Na</c><c>   1</c></rc>
    <rc><c>Na</c><c>   1</c></rc>
    <rc><c>Na</c><c>   1</c></rc>
    <rc><c>Na</c><c>   1</c></rc>
    <rc><c>Na</c><c>   1</c></rc>
    <rc><c>Na</c><c>   1</c></rc>
    <rc><c>Na</c><c>   1</c></rc>
    <rc><c>Na</c><c>   1</c></rc>
    <rc><c>Na</c><c>   1</c></rc>
    <rc><c>Na</c><c>   1</c></rc>
    <rc><c>Na</c><c>   1</c></rc>
    <rc><c>Na</c><c>   1</c></rc>
    <rc><c>Na</c><c>   1</c></rc>
    <rc><c>Na</c><c>   1</c></rc>
    <rc><c>Na</c><c>   1</c></rc>
    <rc><c>Na</c><c>   1</c></rc>
    <rc><c>Na</c><c>   1</c></rc>
    <rc><c>Na</c><c>   1</c></rc>
    <rc><c>Na</c><c>   1</c></rc>
    <rc><c>Na</c><c>   1</c></rc>
    <rc><c>Na</c><c>   1</c></rc>
    <rc><c>Na</c><c>   1</c></rc>
    <rc><c>Na</c><c>   1</c></rc>
    <rc><c>Na</c><c>   1</c></rc>
    <rc><c>Na</c><c>   1</c></rc>
    <rc><c>Na</c><c>   1</c></rc>
    <rc><c>Na</c><c>   1</c></rc>
    <rc><c>Na</c><c>   1</c></rc>
    <rc><c>Na</c><c>   1</c></rc>
    <rc><c>Na</c><c>   1</c></rc>
    <rc><c>Na</c><c>   1</c></rc>
    <rc><c>Na</c><c>   1</c></rc>
    <rc><c>Na</c><c>   1</c></rc>
    <rc><c>Na</c><c>   1</c></rc>
    <rc><c>Na</c><c>   1</c></rc>
    <rc><c>Na</c><c>   1</c></rc>
    <rc><c>Na</c><c>   1</c></rc>
    <rc><c>Na</c><c>   1</c></rc>
    <rc><c>Na</c><c>   1</c></rc>
    <rc><c>Na</c><c>   1</c></rc>
    <rc><c>Na</c><c>   1</c></rc>
    <rc><c>Na</c><c>   1</c></rc>
    <rc><c>Na</c><c>   1</c></rc>
    <rc><c>Na</c><c>   1</c></rc>
   </set>
  </array>
  <array name="atomtypes" >
   <dimension dim="1">type</dimension>
   <field type="int">atomspertype</field>
   <field type="string">element</field>
   <field>mass</field>
   <field>valence</field>
   <field type="string">pseudopotential</field>
   <set>
    <rc><c> 108</c><c>Na</c><c>     22.99000000</c><c>      1.00000000</c><c>  PAW_PBE Na 08Apr2002                  </c></rc>
   </set>
  </array>
 </atominfo>
 <structure name="initialpos" >
  <crystal>
   <varray name="basis" >
    <v>      -8.89989772       8.89989772       0.00000000 </v>
    <v>     -17.79979544      -0.00000000       0.00000000 </v>
    <v>       0.00000000       0.00000000      35.07498221 </v>
   </varray>
   <i name="volume">   5556.45096937 </i>
   <varray name="rec_basis" >
    <v>      -0.00000000       0.11236084       0.00000000 </v>
    <v>      -0.05618042      -0.05618042       0.00000000 </v>
    <v>       0.00000000       0.00000000       0.02851035 </v>
   </varray>
  </crystal>
  <varray name="positions" >
   <v>       0.00000000       0.00000003       0.23086889 </v>
   <v>       0.00000000       0.16666698       0.17106210 </v>
   <v>       0.00000000       0.00000003       0.35048270 </v>
   <v>       0.00000000       0.16666698       0.29067590 </v>
   <v>       0.00000000       0.00000003       0.47009650 </v>
   <v>       0.00000000       0.16666698       0.41028970 </v>
   <v>       0.00000000       0.00000003       0.58971030 </v>
   <v>       0.00000000       0.16666698       0.52990350 </v>
   <v>       0.00000000       0.00000003       0.70932410 </v>
   <v>       0.00000000       0.16666698       0.64951730 </v>
   <v>       0.00000000       0.00000003       0.82893790 </v>
   <v>       0.00000000       0.16666698       0.76913111 </v>
   <v>       0.33333333       0.00000003       0.23086889 </v>
   <v>       0.33333333       0.16666698       0.17106210 </v>
   <v>       0.33333333       0.00000003       0.35048270 </v>
   <v>       0.33333333       0.16666698       0.29067590 </v>
   <v>       0.33333333       0.00000003       0.47009650 </v>
   <v>       0.33333333       0.16666698       0.41028970 </v>
   <v>       0.33333333       0.00000003       0.58971030 </v>
   <v>       0.33333333       0.16666698       0.52990350 </v>
   <v>       0.33333333       0.00000003       0.70932410 </v>
   <v>       0.33333333       0.16666698       0.64951730 </v>
   <v>       0.33333333       0.00000003       0.82893790 </v>
   <v>       0.33333333       0.16666698       0.76913111 </v>
   <v>       0.00000000       0.33333337       0.23086889 </v>
   <v>       0.00000000       0.50000032       0.17106210 </v>
   <v>       0.00000000       0.33333337       0.35048270 </v>
   <v>       0.00000000       0.50000032       0.29067590 </v>
   <v>       0.00000000       0.33333337       0.47009650 </v>
   <v>       0.00000000       0.50000032       0.41028970 </v>
   <v>       0.00000000       0.33333337       0.58971030 </v>
   <v>       0.00000000       0.50000032       0.52990350 </v>
   <v>       0.00000000       0.33333337       0.70932410 </v>
   <v>       0.00000000       0.50000032       0.64951730 </v>
   <v>       0.00000000       0.33333337       0.82893790 </v>
   <v>       0.00000000       0.50000032       0.76913111 </v>
   <v>       0.66666667       0.00000003       0.23086889 </v>
   <v>       0.66666667       0.16666698       0.17106210 </v>
   <v>       0.66666667       0.00000003       0.35048270 </v>
   <v>       0.66666667       0.16666698       0.29067590 </v>
   <v>       0.66666667       0.00000003       0.47009650 </v>
   <v>       0.66666667       0.16666698       0.41028970 </v>
   <v>       0.66666667       0.00000003       0.58971030 </v>
   <v>       0.66666667       0.16666698       0.52990350 </v>
   <v>       0.66666667       0.00000003       0.70932410 </v>
   <v>       0.66666667       0.16666698       0.64951730 </v>
   <v>       0.66666667       0.00000003       0.82893790 </v>
   <v>       0.66666667       0.16666698       0.76913111 </v>
   <v>       0.33333333       0.33333337       0.23086889 </v>
   <v>       0.33333333       0.50000032       0.17106210 </v>
   <v>       0.33333333       0.33333337       0.35048270 </v>
   <v>       0.33333333       0.50000032       0.29067590 </v>
   <v>       0.33333333       0.33333337       0.47009650 </v>
   <v>       0.33333333       0.50000032       0.41028970 </v>
   <v>       0.33333333       0.33333337       0.58971030 </v>
   <v>       0.33333333       0.50000032       0.52990350 </v>
   <v>       0.33333333       0.33333337       0.70932410 </v>
   <v>       0.33333333       0.50000032       0.64951730 </v>
   <v>       0.33333333       0.33333337       0.82893790 </v>
   <v>       0.33333333       0.50000032       0.76913111 </v>
   <v>       0.00000000       0.66666670       0.23086889 </v>
   <v>       0.00000000       0.83333365       0.17106210 </v>
   <v>       0.00000000       0.66666670       0.35048270 </v>
   <v>       0.00000000       0.83333365       0.29067590 </v>
   <v>       0.00000000       0.66666670       0.47009650 </v>
   <v>       0.00000000       0.83333365       0.41028970 </v>
   <v>       0.00000000       0.66666670       0.58971030 </v>
   <v>       0.00000000       0.83333365       0.52990350 </v>
   <v>       0.00000000       0.66666670       0.70932410 </v>
   <v>       0.00000000       0.83333365       0.64951730 </v>
   <v>       0.00000000       0.66666670       0.82893790 </v>
   <v>       0.00000000       0.83333365       0.76913111 </v>
   <v>       0.66666667       0.33333337       0.23086889 </v>
   <v>       0.66666667       0.50000032       0.17106210 </v>
   <v>       0.66666667       0.33333337       0.35048270 </v>
   <v>       0.66666667       0.50000032       0.29067590 </v>
   <v>       0.66666667       0.33333337       0.47009650 </v>
   <v>       0.66666667       0.50000032       0.41028970 </v>
   <v>       0.66666667       0.33333337       0.58971030 </v>
   <v>       0.66666667       0.50000032       0.52990350 </v>
   <v>       0.66666667       0.33333337       0.70932410 </v>
   <v>       0.66666667       0.50000032       0.64951730 </v>
   <v>       0.66666667       0.33333337       0.82893790 </v>
   <v>       0.66666667       0.50000032       0.76913111 </v>
   <v>       0.33333333       0.66666670       0.23086889 </v>
   <v>       0.33333333       0.83333365       0.17106210 </v>
   <v>       0.33333333       0.66666670       0.35048270 </v>
   <v>       0.33333333       0.83333365       0.29067590 </v>
   <v>       0.33333333       0.66666670       0.47009650 </v>
   <v>       0.33333333       0.83333365       0.41028970 </v>
   <v>       0.33333333       0.66666670       0.58971030 </v>
   <v>       0.33333333       0.83333365       0.52990350 </v>
   <v>       0.33333333       0.66666670       0.70932410 </v>
   <v>       0.33333333       0.83333365       0.64951730 </v>
   <v>       0.33333333       0.66666670       0.82893790 </v>
   <v>       0.33333333       0.83333365       0.76913111 </v>
   <v>       0.66666667       0.66666670       0.23086889 </v>
   <v>       0.66666667       0.83333365       0.17106210 </v>
   <v>       0.66666667       0.66666670       0.35048270 </v>
   <v>       0.66666667       0.83333365       0.29067590 </v>
   <v>       0.66666667       0.66666670       0.47009650 </v>
   <v>       0.66666667       0.83333365       0.41028970 </v>
   <v>       0.66666667       0.66666670       0.58971030 </v>
   <v>       0.66666667       0.83333365       0.52990350 </v>
   <v>       0.66666667       0.66666670       0.70932410 </v>
   <v>       0.66666667       0.83333365       0.64951730 </v>
   <v>       0.66666667       0.66666670       0.82893790 </v>
   <v>       0.66666667       0.83333365       0.76913111 </v>
  </varray>
 </structure>
 <calculation>
  <scstep>
   <time name="dav">    0.93    0.94</time>
   <time name="total">    1.06    1.08</time>
   <dipole>
    <v name="dipole">      0.00000000       0.00000000       0.00000000 </v>
    <i name="Tr[quadrupol]">  -4009.16488988 </i>
    <i name="Echarged">      0.00000000 </i>
    <i name="Edipol_quadrupol">      0.00000000 </i>
    <i name="Eion">      0.00000000 </i>
   </dipole>
   <energy>
    <i name="alphaZ">    -38.44870795 </i>
    <i name="ewald">    908.66716911 </i>
    <i name="hartreedc">  -1454.57047939 </i>
    <i name="XCdc">  -3952.00757164 </i>
    <i name="pawpsdc">   4306.62377697 </i>
    <i name="pawaedc">   -255.70647382 </i>
    <i name="eentropy">     -0.12701337 </i>
    <i name="bandstr">    -68.73046465 </i>
    <i name="atom">    557.06934077 </i>
    <i name="e_fr_energy">      2.76957603 </i>
    <i name="e_wo_entrp">      2.89658940 </i>
    <i name="e_0_energy">      2.83308272 </i>
   </energy>
  </scstep>
  <scstep>
   <time name="dav">    0.98    0.99</time>
   <time name="total">    0.98    0.99</time>
   <dipole>
    <v name="dipole">      0.00000000       0.00000000       0.00000000 </v>
    <i name="Tr[quadrupol]">  -4009.16488988 </i>
    <i name="Echarged">      0.00000000 </i>
    <i name="Edipol_quadrupol">      0.00000000 </i>
    <i name="Eion">      0.00000000 </i>
   </dipole>
   <energy>
    <i name="e_fr_energy">   -132.26842629 </i>
    <i name="e_wo_entrp">   -132.03810690 </i>
    <i name="e_0_energy">   -132.15326659 </i>
   </energy>
  </scstep>
  <scstep>
   <time name="dav">    1.07    1.07</time>
   <time name="total">    1.07    1.07</time>
   <dipole>
    <v name="dipole">      0.00000000       0.00000000       0.00000000 </v>
    <i name="Tr[quadrupol]">  -4009.16488988 </i>
    <i name="Echarged">      0.00000000 </i>
    <i name="Edipol_quadrupol">      0.00000000 </i>
    <i name="Eion">      0.00000000 </i>
   </dipole>
   <energy>
    <i name="e_fr_energy">   -141.68099092 </i>
    <i name="e_wo_entrp">   -141.37382583 </i>
    <i name="e_0_energy">   -141.52740838 </i>
   </energy>
  </scstep>
  <scstep>
   <time name="dav">    1.34    1.44</time>
   <time name="total">    1.34    1.44</time>
   <dipole>
    <v name="dipole">      0.00000000       0.00000000       0.00000000 </v>
    <i name="Tr[quadrupol]">  -4009.16488988 </i>
    <i name="Echarged">      0.00000000 </i>
    <i name="Edipol_quadrupol">      0.00000000 </i>
    <i name="Eion">      0.00000000 </i>
   </dipole>
   <energy>
    <i name="e_fr_energy">   -142.19055545 </i>
    <i name="e_wo_entrp">   -141.88298538 </i>
    <i name="e_0_energy">   -142.03677042 </i>
   </energy>
  </scstep>
  <scstep>
   <time name="dav">    1.26    1.27</time>
   <time name="total">    1.31    1.32</time>
   <dipole>
    <v name="dipole">      0.00000000       0.00000000       0.00000000 </v>
    <i name="Tr[quadrupol]">  -4009.16488988 </i>
    <i name="Echarged">      0.00000000 </i>
    <i name="Edipol_quadrupol">      0.00000000 </i>
    <i name="Eion">      0.00000000 </i>
   </dipole>
   <energy>
    <i name="e_fr_energy">   -142.22642668 </i>
    <i name="e_wo_entrp">   -141.91881498 </i>
    <i name="e_0_energy">   -142.07262083 </i>
   </energy>
  </scstep>
  <scstep>
   <time name="diag">    0.18    0.18</time>
   <time name="diis">    0.57    0.57</time>
   <time name="orth">    0.04    0.04</time>
   <time name="total">    0.97    0.97</time>
   <dipole>
    <v name="dipole">      0.00000000       0.00000000      -0.00001441 </v>
    <i name="Tr[quadrupol]">  -4012.27226144 </i>
    <i name="Echarged">      0.00000000 </i>
    <i name="Edipol_quadrupol">      0.00000000 </i>
    <i name="Eion">      0.00000000 </i>
   </dipole>
   <energy>
    <i name="e_fr_energy">   -140.32059496 </i>
    <i name="e_wo_entrp">   -139.99790419 </i>
    <i name="e_0_energy">   -140.15924957 </i>
   </energy>
  </scstep>
  <scstep>
   <time name="diag">    0.18    0.18</time>
   <time name="diis">    0.59    0.59</time>
   <time name="orth">    0.04    0.04</time>
   <time name="total">    0.98    0.98</time>
   <dipole>
    <v name="dipole">      0.00000000       0.00000000       0.00001943 </v>
    <i name="Tr[quadrupol]">  -4020.89489025 </i>
    <i name="Echarged">      0.00000000 </i>
    <i name="Edipol_quadrupol">      0.00000000 </i>
    <i name="Eion">      0.00000000 </i>
   </dipole>
   <energy>
    <i name="e_fr_energy">   -138.91739633 </i>
    <i name="e_wo_entrp">   -138.60228560 </i>
    <i name="e_0_energy">   -138.75984097 </i>
   </energy>
  </scstep>
  <scstep>
   <time name="diag">    0.18    0.18</time>
   <time name="diis">    0.58    0.58</time>
   <time name="orth">    0.04    0.04</time>
   <time name="total">    0.98    0.98</time>
   <dipole>
    <v name="dipole">      0.00000000       0.00000000       0.00000422 </v>
    <i name="Tr[quadrupol]">  -4028.39872875 </i>
    <i name="Echarged">      0.00000000 </i>
    <i name="Edipol_quadrupol">      0.00000000 </i>
    <i name="Eion">      0.00000000 </i>
   </dipole>
   <energy>
    <i name="e_fr_energy">   -138.70586323 </i>
    <i name="e_wo_entrp">   -138.39048492 </i>
    <i name="e_0_energy">   -138.54817407 </i>
   </energy>
  </scstep>
  <scstep>
   <time name="diag">    0.19    0.19</time>
   <time name="diis">    0.57    0.57</time>
   <time name="orth">    0.04    0.04</time>
   <time name="total">    0.97    0.99</time>
   <dipole>
    <v name="dipole">      0.00000000       0.00000000       0.00004602 </v>
    <i name="Tr[quadrupol]">  -4038.84222212 </i>
    <i name="Echarged">      0.00000000 </i>
    <i name="Edipol_quadrupol">      0.00000000 </i>
    <i name="Eion">      0.00000000 </i>
   </dipole>
   <energy>
    <i name="e_fr_energy">   -138.55774957 </i>
    <i name="e_wo_entrp">   -138.23873415 </i>
    <i name="e_0_energy">   -138.39824186 </i>
   </energy>
  </scstep>
  <scstep>
   <time name="diag">    0.18    0.18</time>
   <time name="diis">    0.57    0.57</time>
   <time name="orth">    0.04    0.04</time>
   <time name="total">    0.96    0.96</time>
   <dipole>
    <v name="dipole">      0.00000000       0.00000000       0.00001701 </v>
    <i name="Tr[quadrupol]">  -4057.21975533 </i>
    <i name="Echarged">      0.00000000 </i>
    <i name="Edipol_quadrupol">      0.00000000 </i>
    <i name="Eion">      0.00000000 </i>
   </dipole>
   <energy>
    <i name="e_fr_energy">   -138.44031806 </i>
    <i name="e_wo_entrp">   -138.11647654 </i>
    <i name="e_0_energy">   -138.27839730 </i>
   </energy>
  </scstep>
  <scstep>
   <time name="diag">    0.18    0.18</time>
   <time name="diis">    0.58    0.58</time>
   <time name="orth">    0.04    0.04</time>
   <time name="total">    0.96    0.96</time>
   <dipole>
    <v name="dipole">      0.00000000       0.00000000      -0.00000263 </v>
    <i name="Tr[quadrupol]">  -4078.34918529 </i>
    <i name="Echarged">      0.00000000 </i>
    <i name="Edipol_quadrupol">      0.00000000 </i>
    <i name="Eion">      0.00000000 </i>
   </dipole>
   <energy>
    <i name="e_fr_energy">   -138.32321642 </i>
    <i name="e_wo_entrp">   -137.99606619 </i>
    <i name="e_0_energy">   -138.15964130 </i>
   </energy>
  </scstep>
  <scstep>
   <time name="diag">    0.18    0.18</time>
   <time name="diis">    0.59    0.59</time>
   <time name="orth">    0.04    0.04</time>
   <time name="total">    0.97    0.97</time>
   <dipole>
    <v name="dipole">      0.00000000       0.00000000      -0.00001566 </v>
    <i name="Tr[quadrupol]">  -4086.77060615 </i>
    <i name="Echarged">      0.00000000 </i>
    <i name="Edipol_quadrupol">      0.00000000 </i>
    <i name="Eion">      0.00000000 </i>
   </dipole>
   <energy>
    <i name="e_fr_energy">   -138.37261781 </i>
    <i name="e_wo_entrp">   -138.04609415 </i>
    <i name="e_0_energy">   -138.20935598 </i>
   </energy>
  </scstep>
  <scstep>
   <time name="diag">    0.18    0.18</time>
   <time name="diis">    0.57    0.57</time>
   <time name="orth">    0.04    0.04</time>
   <time name="total">    0.96    0.96</time>
   <dipole>
    <v name="dipole">      0.00000000       0.00000000       0.00000544 </v>
    <i name="Tr[quadrupol]">  -4087.53760339 </i>
    <i name="Echarged">      0.00000000 </i>
    <i name="Edipol_quadrupol">      0.00000000 </i>
    <i name="Eion">      0.00000000 </i>
   </dipole>
   <energy>
    <i name="e_fr_energy">   -138.41995607 </i>
    <i name="e_wo_entrp">   -138.09201644 </i>
    <i name="e_0_energy">   -138.25598625 </i>
   </energy>
  </scstep>
  <scstep>
   <time name="diag">    0.18    0.18</time>
   <time name="diis">    0.57    0.57</time>
   <time name="orth">    0.04    0.04</time>
   <time name="total">    0.96    0.96</time>
   <dipole>
    <v name="dipole">      0.00000000       0.00000000       0.00001360 </v>
    <i name="Tr[quadrupol]">  -4094.02005201 </i>
    <i name="Echarged">      0.00000000 </i>
    <i name="Edipol_quadrupol">      0.00000000 </i>
    <i name="Eion">      0.00000000 </i>
   </dipole>
   <energy>
    <i name="e_fr_energy">   -138.42730669 </i>
    <i name="e_wo_entrp">   -138.09622795 </i>
    <i name="e_0_energy">   -138.26176732 </i>
   </energy>
  </scstep>
  <scstep>
   <time name="diag">    0.18    0.18</time>
   <time name="diis">    0.57    0.57</time>
   <time name="orth">    0.04    0.04</time>
   <time name="total">    0.96    0.96</time>
   <dipole>
    <v name="dipole">      0.00000000       0.00000000       0.00001888 </v>
    <i name="Tr[quadrupol]">  -4091.91517436 </i>
    <i name="Echarged">      0.00000000 </i>
    <i name="Edipol_quadrupol">      0.00000000 </i>
    <i name="Eion">      0.00000000 </i>
   </dipole>
   <energy>
    <i name="e_fr_energy">   -138.43796455 </i>
    <i name="e_wo_entrp">   -138.10808286 </i>
    <i name="e_0_energy">   -138.27302371 </i>
   </energy>
  </scstep>
  <scstep>
   <time name="diag">    0.18    0.18</time>
   <time name="diis">    0.63    0.63</time>
   <time name="orth">    0.04    0.04</time>
   <time name="total">    1.02    1.02</time>
   <dipole>
    <v name="dipole">      0.00000000       0.00000000       0.00001799 </v>
    <i name="Tr[quadrupol]">  -4092.71686610 </i>
    <i name="Echarged">      0.00000000 </i>
    <i name="Edipol_quadrupol">      0.00000000 </i>
    <i name="Eion">      0.00000000 </i>
   </dipole>
   <energy>
    <i name="e_fr_energy">   -138.43822527 </i>
    <i name="e_wo_entrp">   -138.10789379 </i>
    <i name="e_0_energy">   -138.27305953 </i>
   </energy>
  </scstep>
  <scstep>
   <time name="diag">    0.21    0.22</time>
   <time name="diis">    0.69    0.69</time>
   <time name="orth">    0.04    0.04</time>
   <time name="total">    1.11    1.13</time>
   <dipole>
    <v name="dipole">      0.00000000       0.00000000       0.00001130 </v>
    <i name="Tr[quadrupol]">  -4092.60148188 </i>
    <i name="Echarged">      0.00000000 </i>
    <i name="Edipol_quadrupol">      0.00000000 </i>
    <i name="Eion">      0.00000000 </i>
   </dipole>
   <energy>
    <i name="e_fr_energy">   -138.43829313 </i>
    <i name="e_wo_entrp">   -138.10790280 </i>
    <i name="e_0_energy">   -138.27309796 </i>
   </energy>
  </scstep>
  <scstep>
   <time name="diag">    0.18    0.18</time>
   <time name="diis">    0.67    0.67</time>
   <time name="orth">    0.04    0.04</time>
   <time name="total">    1.06    1.08</time>
   <dipole>
    <v name="dipole">      0.00000000       0.00000000       0.00000406 </v>
    <i name="Tr[quadrupol]">  -4092.70009301 </i>
    <i name="Echarged">      0.00000000 </i>
    <i name="Edipol_quadrupol">      0.00000000 </i>
    <i name="Eion">      0.00000000 </i>
   </dipole>
   <energy>
    <i name="e_fr_energy">   -138.43829028 </i>
    <i name="e_wo_entrp">   -138.10786869 </i>
    <i name="e_0_energy">   -138.27307949 </i>
   </energy>
  </scstep>
  <scstep>
   <time name="diag">    0.18    0.18</time>
   <time name="diis">    0.68    0.68</time>
   <time name="orth">    0.04    0.04</time>
   <time name="total">    1.07    1.08</time>
   <dipole>
    <v name="dipole">      0.00000000       0.00000000      -0.00000013 </v>
    <i name="Tr[quadrupol]">  -4092.73062564 </i>
    <i name="Echarged">      0.00000000 </i>
    <i name="Edipol_quadrupol">      0.00000000 </i>
    <i name="Eion">      0.00000000 </i>
   </dipole>
   <energy>
    <i name="e_fr_energy">   -138.43829178 </i>
    <i name="e_wo_entrp">   -138.10783045 </i>
    <i name="e_0_energy">   -138.27306111 </i>
   </energy>
  </scstep>
  <scstep>
   <time name="diag">    0.18    0.18</time>
   <time name="diis">    0.72    0.72</time>
   <time name="orth">    0.04    0.04</time>
   <time name="total">    1.10    1.10</time>
   <dipole>
    <v name="dipole">      0.00000000       0.00000000      -0.00000200 </v>
    <i name="Tr[quadrupol]">  -4092.72105588 </i>
    <i name="Echarged">      0.00000000 </i>
    <i name="Edipol_quadrupol">      0.00000000 </i>
    <i name="Eion">      0.00000000 </i>
   </dipole>
   <energy>
    <i name="e_fr_energy">   -138.43829212 </i>
    <i name="e_wo_entrp">   -138.10783782 </i>
    <i name="e_0_energy">   -138.27306497 </i>
   </energy>
  </scstep>
  <scstep>
   <time name="diag">    0.18    0.18</time>
   <time name="diis">    0.70    0.70</time>
   <time name="orth">    0.04    0.04</time>
   <time name="total">    1.08    1.08</time>
   <dipole>
    <v name="dipole">      0.00000000       0.00000000      -0.00000231 </v>
    <i name="Tr[quadrupol]">  -4092.71427143 </i>
    <i name="Echarged">      0.00000000 </i>
    <i name="Edipol_quadrupol">      0.00000000 </i>
    <i name="Eion">      0.00000000 </i>
   </dipole>
   <energy>
    <i name="e_fr_energy">   -138.43829213 </i>
    <i name="e_wo_entrp">   -138.10784329 </i>
    <i name="e_0_energy">   -138.27306771 </i>
   </energy>
  </scstep>
  <scstep>
   <time name="diag">    0.18    0.18</time>
   <time name="diis">    0.64    0.64</time>
   <time name="orth">    0.04    0.04</time>
   <time name="total">    0.98    0.98</time>
   <dipole>
    <v name="dipole">      0.00000000       0.00000000      -0.00000216 </v>
    <i name="Tr[quadrupol]">  -4092.71449275 </i>
    <i name="Echarged">      0.00000000 </i>
    <i name="Edipol_quadrupol">      0.00000000 </i>
    <i name="Eion">      0.00000000 </i>
   </dipole>
   <energy>
    <i name="alphaZ">    -38.44870795 </i>
    <i name="ewald">    908.66716911 </i>
    <i name="hartreedc">  -1506.93826028 </i>
    <i name="XCdc">  -3944.94125851 </i>
    <i name="pawpsdc">   4258.83909892 </i>
    <i name="pawaedc">   -208.16683943 </i>
    <i name="eentropy">     -0.33044668 </i>
    <i name="bandstr">   -164.18838809 </i>
    <i name="atom">    557.06934077 </i>
    <i name="e_fr_energy">   -138.43829213 </i>
    <i name="e_wo_entrp">   -138.10784545 </i>
    <i name="e_0_energy">   -138.27306879 </i>
   </energy>
  </scstep>
  <structure>
   <crystal>
    <varray name="basis" >
     <v>      -8.89989772       8.89989772       0.00000000 </v>
     <v>     -17.79979544      -0.00000000       0.00000000 </v>
     <v>       0.00000000       0.00000000      35.07498221 </v>
    </varray>
    <i name="volume">   5556.45096937 </i>
    <varray name="rec_basis" >
     <v>      -0.00000000       0.11236084       0.00000000 </v>
     <v>      -0.05618042      -0.05618042       0.00000000 </v>
     <v>       0.00000000       0.00000000       0.02851035 </v>
    </varray>
   </crystal>
   <varray name="positions" >
    <v>       0.00000000       0.00000003       0.23086889 </v>
    <v>       0.00000000       0.16666698       0.17106210 </v>
    <v>       0.00000000       0.00000003       0.35048270 </v>
    <v>       0.00000000       0.16666698       0.29067590 </v>
    <v>       0.00000000       0.00000003       0.47009650 </v>
    <v>       0.00000000       0.16666698       0.41028970 </v>
    <v>       0.00000000       0.00000003       0.58971030 </v>
    <v>       0.00000000       0.16666698       0.52990350 </v>
    <v>       0.00000000       0.00000003       0.70932410 </v>
    <v>       0.00000000       0.16666698       0.64951730 </v>
    <v>       0.00000000       0.00000003       0.82893790 </v>
    <v>       0.00000000       0.16666698       0.76913111 </v>
    <v>       0.33333333       0.00000003       0.23086889 </v>
    <v>       0.33333333       0.16666698       0.17106210 </v>
    <v>       0.33333333       0.00000003       0.35048270 </v>
    <v>       0.33333333       0.16666698       0.29067590 </v>
    <v>       0.33333333       0.00000003       0.47009650 </v>
    <v>       0.33333333       0.16666698       0.41028970 </v>
    <v>       0.33333333       0.00000003       0.58971030 </v>
    <v>       0.33333333       0.16666698       0.52990350 </v>
    <v>       0.33333333       0.00000003       0.70932410 </v>
    <v>       0.33333333       0.16666698       0.64951730 </v>
    <v>       0.33333333       0.00000003       0.82893790 </v>
    <v>       0.33333333       0.16666698       0.76913111 </v>
    <v>       0.00000000       0.33333337       0.23086889 </v>
    <v>       0.00000000       0.50000032       0.17106210 </v>
    <v>       0.00000000       0.33333337       0.35048270 </v>
    <v>       0.00000000       0.50000032       0.29067590 </v>
    <v>       0.00000000       0.33333337       0.47009650 </v>
    <v>       0.00000000       0.50000032       0.41028970 </v>
    <v>       0.00000000       0.33333337       0.58971030 </v>
    <v>       0.00000000       0.50000032       0.52990350 </v>
    <v>       0.00000000       0.33333337       0.70932410 </v>
    <v>       0.00000000       0.50000032       0.64951730 </v>
    <v>       0.00000000       0.33333337       0.82893790 </v>
    <v>       0.00000000       0.50000032       0.76913111 </v>
    <v>       0.66666667       0.00000003       0.23086889 </v>
    <v>       0.66666667       0.16666698       0.17106210 </v>
    <v>       0.66666667       0.00000003       0.35048270 </v>
    <v>       0.66666667       0.16666698       0.29067590 </v>
    <v>       0.66666667       0.00000003       0.47009650 </v>
    <v>       0.66666667       0.16666698       0.41028970 </v>
    <v>       0.66666667       0.00000003       0.58971030 </v>
    <v>       0.66666667       0.16666698       0.52990350 </v>
    <v>       0.66666667       0.00000003       0.70932410 </v>
    <v>       0.66666667       0.16666698       0.64951730 </v>
    <v>       0.66666667       0.00000003       0.82893790 </v>
    <v>       0.66666667       0.16666698       0.76913111 </v>
    <v>       0.33333333       0.33333337       0.23086889 </v>
    <v>       0.33333333       0.50000032       0.17106210 </v>
    <v>       0.33333333       0.33333337       0.35048270 </v>
    <v>       0.33333333       0.50000032       0.29067590 </v>
    <v>       0.33333333       0.33333337       0.47009650 </v>
    <v>       0.33333333       0.50000032       0.41028970 </v>
    <v>       0.33333333       0.33333337       0.58971030 </v>
    <v>       0.33333333       0.50000032       0.52990350 </v>
    <v>       0.33333333       0.33333337       0.70932410 </v>
    <v>       0.33333333       0.50000032       0.64951730 </v>
    <v>       0.33333333       0.33333337       0.82893790 </v>
    <v>       0.33333333       0.50000032       0.76913111 </v>
    <v>       0.00000000       0.66666670       0.23086889 </v>
    <v>       0.00000000       0.83333365       0.17106210 </v>
    <v>       0.00000000       0.66666670       0.35048270 </v>
    <v>       0.00000000       0.83333365       0.29067590 </v>
    <v>       0.00000000       0.66666670       0.47009650 </v>
    <v>       0.00000000       0.83333365       0.41028970 </v>
    <v>       0.00000000       0.66666670       0.58971030 </v>
    <v>       0.00000000       0.83333365       0.52990350 </v>
    <v>       0.00000000       0.66666670       0.70932410 </v>
    <v>       0.00000000       0.83333365       0.64951730 </v>
    <v>       0.00000000       0.66666670       0.82893790 </v>
    <v>       0.00000000       0.83333365       0.76913111 </v>
    <v>       0.66666667       0.33333337       0.23086889 </v>
    <v>       0.66666667       0.50000032       0.17106210 </v>
    <v>       0.66666667       0.33333337       0.35048270 </v>
    <v>       0.66666667       0.50000032       0.29067590 </v>
    <v>       0.66666667       0.33333337       0.47009650 </v>
    <v>       0.66666667       0.50000032       0.41028970 </v>
    <v>       0.66666667       0.33333337       0.58971030 </v>
    <v>       0.66666667       0.50000032       0.52990350 </v>
    <v>       0.66666667       0.33333337       0.70932410 </v>
    <v>       0.66666667       0.50000032       0.64951730 </v>
    <v>       0.66666667       0.33333337       0.82893790 </v>
    <v>       0.66666667       0.50000032       0.76913111 </v>
    <v>       0.33333333       0.66666670       0.23086889 </v>
    <v>       0.33333333       0.83333365       0.17106210 </v>
    <v>       0.33333333       0.66666670       0.35048270 </v>
    <v>       0.33333333       0.83333365       0.29067590 </v>
    <v>       0.33333333       0.66666670       0.47009650 </v>
    <v>       0.33333333       0.83333365       0.41028970 </v>
    <v>       0.33333333       0.66666670       0.58971030 </v>
    <v>       0.33333333       0.83333365       0.52990350 </v>
    <v>       0.33333333       0.66666670       0.70932410 </v>
    <v>       0.33333333       0.83333365       0.64951730 </v>
    <v>       0.33333333       0.66666670       0.82893790 </v>
    <v>       0.33333333       0.83333365       0.76913111 </v>
    <v>       0.66666667       0.66666670       0.23086889 </v>
    <v>       0.66666667       0.83333365       0.17106210 </v>
    <v>       0.66666667       0.66666670       0.35048270 </v>
    <v>       0.66666667       0.83333365       0.29067590 </v>
    <v>       0.66666667       0.66666670       0.47009650 </v>
    <v>       0.66666667       0.83333365       0.41028970 </v>
    <v>       0.66666667       0.66666670       0.58971030 </v>
    <v>       0.66666667       0.83333365       0.52990350 </v>
    <v>       0.66666667       0.66666670       0.70932410 </v>
    <v>       0.66666667       0.83333365       0.64951730 </v>
    <v>       0.66666667       0.66666670       0.82893790 </v>
    <v>       0.66666667       0.83333365       0.76913111 </v>
   </varray>
  </structure>
  <varray name="forces" >
   <v>       0.00000054       0.00000003       0.02414204 </v>
   <v>      -0.00000163      -0.00000005       0.04620186 </v>
   <v>       0.00000067       0.00000003       0.00719399 </v>
   <v>      -0.00000118       0.00000010      -0.04465984 </v>
   <v>       0.00000055      -0.00000003       0.01013114 </v>
   <v>      -0.00000097       0.00000000       0.00368309 </v>
   <v>       0.00000068      -0.00000003      -0.00368308 </v>
   <v>      -0.00000110       0.00000004      -0.01013119 </v>
   <v>       0.00000066       0.00000008       0.04465983 </v>
   <v>      -0.00000063      -0.00000011      -0.00719398 </v>
   <v>       0.00000232      -0.00000007      -0.04620198 </v>
   <v>      -0.00000092       0.00000004      -0.02414211 </v>
   <v>       0.00555646       0.00133331       0.01940028 </v>
   <v>       0.00205966      -0.00211718       0.05722681 </v>
   <v>      -0.00059847       0.00394239      -0.00374648 </v>
   <v>       0.00541104       0.00282877      -0.04089762 </v>
   <v>       0.00193949       0.00274299      -0.00129165 </v>
   <v>      -0.00259744      -0.00302870       0.01449786 </v>
   <v>      -0.00259590      -0.00302861      -0.01449799 </v>
   <v>       0.00193814       0.00274294       0.00129170 </v>
   <v>       0.00541235       0.00282886       0.04089784 </v>
   <v>      -0.00059990       0.00394239       0.00374651 </v>
   <v>       0.00206365      -0.00211724      -0.05722716 </v>
   <v>       0.00555508       0.00133335      -0.01940014 </v>
   <v>       0.00000057      -0.00000014       0.02414211 </v>
   <v>      -0.00000168      -0.00000004       0.04620179 </v>
   <v>       0.00000077      -0.00000008       0.00719400 </v>
   <v>      -0.00000118       0.00000001      -0.04465989 </v>
   <v>       0.00000066       0.00000006       0.01013112 </v>
   <v>      -0.00000099       0.00000004       0.00368304 </v>
   <v>       0.00000063       0.00000003      -0.00368312 </v>
   <v>      -0.00000105       0.00000010      -0.01013119 </v>
   <v>       0.00000057       0.00000001       0.04465980 </v>
   <v>      -0.00000059      -0.00000009      -0.00719394 </v>
   <v>       0.00000252       0.00000005      -0.04620166 </v>
   <v>      -0.00000106      -0.00000003      -0.02414215 </v>
   <v>      -0.00555497      -0.00133322       0.01940021 </v>
   <v>      -0.00206269       0.00211725       0.05722721 </v>
   <v>       0.00059977      -0.00394240      -0.00374652 </v>
   <v>      -0.00541237      -0.00282884      -0.04089793 </v>
   <v>      -0.00193818      -0.00274300      -0.00129158 </v>
   <v>       0.00259554       0.00302862       0.01449813 </v>
   <v>       0.00259716       0.00302865      -0.01449799 </v>
   <v>      -0.00193951      -0.00274305       0.00129142 </v>
   <v>      -0.00541098      -0.00282877       0.04089783 </v>
   <v>       0.00059823      -0.00394240       0.00374660 </v>
   <v>      -0.00205872       0.00211721      -0.05722725 </v>
   <v>      -0.00555638      -0.00133323      -0.01940031 </v>
   <v>       0.00555628       0.00133325       0.01940021 </v>
   <v>       0.00205975      -0.00211714       0.05722665 </v>
   <v>      -0.00059837       0.00394234      -0.00374646 </v>
   <v>       0.00541088       0.00282882      -0.04089772 </v>
   <v>       0.00193952       0.00274305      -0.00129156 </v>
   <v>      -0.00259745      -0.00302865       0.01449781 </v>
   <v>      -0.00259587      -0.00302864      -0.01449791 </v>
   <v>       0.00193821       0.00274299       0.00129169 </v>
   <v>       0.00541234       0.00282882       0.04089770 </v>
   <v>      -0.00059997       0.00394228       0.00374646 </v>
   <v>       0.00206362      -0.00211714      -0.05722679 </v>
   <v>       0.00555503       0.00133338      -0.01940034 </v>
   <v>       0.00000068       0.00000004       0.02414214 </v>
   <v>      -0.00000150      -0.00000011       0.04620201 </v>
   <v>       0.00000062      -0.00000000       0.00719398 </v>
   <v>      -0.00000114       0.00000010      -0.04465985 </v>
   <v>       0.00000062       0.00000003       0.01013109 </v>
   <v>      -0.00000099      -0.00000000       0.00368305 </v>
   <v>       0.00000065      -0.00000002      -0.00368303 </v>
   <v>      -0.00000111       0.00000003      -0.01013110 </v>
   <v>       0.00000055       0.00000002       0.04465979 </v>
   <v>      -0.00000050      -0.00000005      -0.00719391 </v>
   <v>       0.00000235      -0.00000009      -0.04620172 </v>
   <v>      -0.00000109       0.00000002      -0.02414212 </v>
   <v>      -0.00555498      -0.00133329       0.01940033 </v>
   <v>      -0.00206259       0.00211727       0.05722710 </v>
   <v>       0.00059953      -0.00394231      -0.00374646 </v>
   <v>      -0.00541235      -0.00282892      -0.04089795 </v>
   <v>      -0.00193813      -0.00274298      -0.00129156 </v>
   <v>       0.00259562       0.00302863       0.01449803 </v>
   <v>       0.00259718       0.00302863      -0.01449797 </v>
   <v>      -0.00193948      -0.00274299       0.00129151 </v>
   <v>      -0.00541107      -0.00282884       0.04089783 </v>
   <v>       0.00059825      -0.00394249       0.00374665 </v>
   <v>      -0.00205855       0.00211735      -0.05722693 </v>
   <v>      -0.00555634      -0.00133327      -0.01940052 </v>
   <v>       0.00555634       0.00133330       0.01940031 </v>
   <v>       0.00205955      -0.00211709       0.05722693 </v>
   <v>      -0.00059842       0.00394244      -0.00374652 </v>
   <v>       0.00541103       0.00282879      -0.04089766 </v>
   <v>       0.00193947       0.00274303      -0.00129168 </v>
   <v>      -0.00259747      -0.00302867       0.01449779 </v>
   <v>      -0.00259579      -0.00302863      -0.01449789 </v>
   <v>       0.00193815       0.00274296       0.00129165 </v>
   <v>       0.00541234       0.00282881       0.04089768 </v>
   <v>      -0.00059986       0.00394232       0.00374653 </v>
   <v>       0.00206348      -0.00211727      -0.05722683 </v>
   <v>       0.00555492       0.00133328      -0.01940010 </v>
   <v>      -0.00555496      -0.00133331       0.01940026 </v>
   <v>      -0.00206254       0.00211727       0.05722739 </v>
   <v>       0.00059974      -0.00394235      -0.00374652 </v>
   <v>      -0.00541233      -0.00282887      -0.04089798 </v>
   <v>      -0.00193823      -0.00274300      -0.00129153 </v>
   <v>       0.00259556       0.00302863       0.01449807 </v>
   <v>       0.00259710       0.00302868      -0.01449795 </v>
   <v>      -0.00193949      -0.00274304       0.00129155 </v>
   <v>      -0.00541106      -0.00282883       0.04089777 </v>
   <v>       0.00059813      -0.00394234       0.00374660 </v>
   <v>      -0.00205883       0.00211710      -0.05722708 </v>
   <v>      -0.00555627      -0.00133329      -0.01940044 </v>
  </varray>
  <varray name="stress" >
   <v>      -0.70680188       0.03912596      -0.00000534 </v>
   <v>       0.03912596      -0.69860523      -0.00000009 </v>
   <v>      -0.00000534      -0.00000009      -2.56047581 </v>
  </varray>
  <energy>
   <i name="e_fr_energy">   -138.43829213 </i>
   <i name="e_wo_entrp">   -138.10784545 </i>
   <i name="e_0_energy">   -138.27306879 </i>
  </energy>
  <time name="totalsc">   24.24   25.15</time>
 </calculation>
 <calculation>
  <scstep>
   <time name="dav">    0.99    0.99</time>
   <time name="total">    1.15    1.15</time>
   <dipole>
    <v name="dipole">      0.00000000       0.00000000      -0.00000148 </v>
    <i name="Tr[quadrupol]">  -4092.70318964 </i>
    <i name="Echarged">      0.00000000 </i>
    <i name="Edipol_quadrupol">      0.00000000 </i>
    <i name="Eion">      0.00000000 </i>
   </dipole>
   <energy>
    <i name="alphaZ">    -38.44870795 </i>
    <i name="ewald">    909.29238755 </i>
    <i name="hartreedc">  -1507.53865866 </i>
    <i name="XCdc">  -3944.93679810 </i>
    <i name="pawpsdc">   4258.83953187 </i>
    <i name="pawaedc">   -208.16727172 </i>
    <i name="eentropy">     -0.33048053 </i>
    <i name="bandstr">   -164.22228247 </i>
    <i name="atom">    557.06934077 </i>
    <i name="e_fr_energy">   -138.44293924 </i>
    <i name="e_wo_entrp">   -138.11245870 </i>
    <i name="e_0_energy">   -138.27769897 </i>
   </energy>
  </scstep>
  <scstep>
   <time name="diag">    0.18    0.18</time>
   <time name="diis">    0.57    0.57</time>
   <time name="orth">    0.04    0.04</time>
   <time name="total">    0.96    0.96</time>
   <dipole>
    <v name="dipole">      0.00000000       0.00000000      -0.00000085 </v>
    <i name="Tr[quadrupol]">  -4092.70433127 </i>
    <i name="Echarged">      0.00000000 </i>
    <i name="Edipol_quadrupol">      0.00000000 </i>
    <i name="Eion">      0.00000000 </i>
   </dipole>
   <energy>
    <i name="e_fr_energy">   -138.44293578 </i>
    <i name="e_wo_entrp">   -138.11249212 </i>
    <i name="e_0_energy">   -138.27771395 </i>
   </energy>
  </scstep>
  <scstep>
   <time name="diag">    0.18    0.18</time>
   <time name="diis">    0.59    0.59</time>
   <time name="orth">    0.04    0.04</time>
   <time name="total">    0.97    0.97</time>
   <dipole>
    <v name="dipole">      0.00000000       0.00000000       0.00000005 </v>
    <i name="Tr[quadrupol]">  -4092.70408824 </i>
    <i name="Echarged">      0.00000000 </i>
    <i name="Edipol_quadrupol">      0.00000000 </i>
    <i name="Eion">      0.00000000 </i>
   </dipole>
   <energy>
    <i name="e_fr_energy">   -138.44293441 </i>
    <i name="e_wo_entrp">   -138.11252272 </i>
    <i name="e_0_energy">   -138.27772856 </i>
   </energy>
  </scstep>
  <scstep>
   <time name="diag">    0.18    0.18</time>
   <time name="diis">    0.66    0.66</time>
   <time name="orth">    0.04    0.04</time>
   <time name="total">    1.04    1.04</time>
   <dipole>
    <v name="dipole">      0.00000000       0.00000000       0.00000033 </v>
    <i name="Tr[quadrupol]">  -4092.70373934 </i>
    <i name="Echarged">      0.00000000 </i>
    <i name="Edipol_quadrupol">      0.00000000 </i>
    <i name="Eion">      0.00000000 </i>
   </dipole>
   <energy>
    <i name="e_fr_energy">   -138.44293541 </i>
    <i name="e_wo_entrp">   -138.11252458 </i>
    <i name="e_0_energy">   -138.27773000 </i>
   </energy>
  </scstep>
  <scstep>
   <time name="diag">    0.18    0.18</time>
   <time name="diis">    0.70    0.70</time>
   <time name="orth">    0.04    0.04</time>
   <time name="total">    1.09    1.09</time>
   <dipole>
    <v name="dipole">      0.00000000       0.00000000       0.00000038 </v>
    <i name="Tr[quadrupol]">  -4092.70293322 </i>
    <i name="Echarged">      0.00000000 </i>
    <i name="Edipol_quadrupol">      0.00000000 </i>
    <i name="Eion">      0.00000000 </i>
   </dipole>
   <energy>
    <i name="e_fr_energy">   -138.44293559 </i>
    <i name="e_wo_entrp">   -138.11251978 </i>
    <i name="e_0_energy">   -138.27772768 </i>
   </energy>
  </scstep>
  <scstep>
   <time name="diag">    0.18    0.18</time>
   <time name="diis">    0.67    0.70</time>
   <time name="orth">    0.04    0.05</time>
   <time name="total">    1.06    1.10</time>
   <dipole>
    <v name="dipole">      0.00000000       0.00000000       0.00000032 </v>
    <i name="Tr[quadrupol]">  -4092.70145944 </i>
    <i name="Echarged">      0.00000000 </i>
    <i name="Edipol_quadrupol">      0.00000000 </i>
    <i name="Eion">      0.00000000 </i>
   </dipole>
   <energy>
    <i name="e_fr_energy">   -138.44293568 </i>
    <i name="e_wo_entrp">   -138.11252286 </i>
    <i name="e_0_energy">   -138.27772927 </i>
   </energy>
  </scstep>
  <scstep>
   <time name="diag">    0.18    0.18</time>
   <time name="diis">    0.62    0.62</time>
   <time name="orth">    0.04    0.04</time>
   <time name="total">    1.02    1.03</time>
   <dipole>
    <v name="dipole">      0.00000000       0.00000000       0.00000020 </v>
    <i name="Tr[quadrupol]">  -4092.69985391 </i>
    <i name="Echarged">      0.00000000 </i>
    <i name="Edipol_quadrupol">      0.00000000 </i>
    <i name="Eion">      0.00000000 </i>
   </dipole>
   <energy>
    <i name="e_fr_energy">   -138.44293564 </i>
    <i name="e_wo_entrp">   -138.11252013 </i>
    <i name="e_0_energy">   -138.27772788 </i>
   </energy>
  </scstep>
  <scstep>
   <time name="diag">    0.18    0.18</time>
   <time name="diis">    0.52    0.52</time>
   <time name="orth">    0.04    0.04</time>
   <time name="total">    0.87    0.87</time>
   <dipole>
    <v name="dipole">      0.00000000       0.00000000       0.00000019 </v>
    <i name="Tr[quadrupol]">  -4092.69981613 </i>
    <i name="Echarged">      0.00000000 </i>
    <i name="Edipol_quadrupol">      0.00000000 </i>
    <i name="Eion">      0.00000000 </i>
   </dipole>
   <energy>
    <i name="alphaZ">    -38.44870795 </i>
    <i name="ewald">    909.29238755 </i>
    <i name="hartreedc">  -1507.54959073 </i>
    <i name="XCdc">  -3944.93513489 </i>
    <i name="pawpsdc">   4258.88237680 </i>
    <i name="pawaedc">   -208.21037914 </i>
    <i name="eentropy">     -0.33041548 </i>
    <i name="bandstr">   -164.21281257 </i>
    <i name="atom">    557.06934077 </i>
    <i name="e_fr_energy">   -138.44293564 </i>
    <i name="e_wo_entrp">   -138.11252016 </i>
    <i name="e_0_energy">   -138.27772790 </i>
   </energy>
  </scstep>
  <structure>
   <crystal>
    <varray name="basis" >
     <v>      -8.89989772       8.89989772       0.00000000 </v>
     <v>     -17.79979544      -0.00000000       0.00000000 </v>
     <v>       0.00000000       0.00000000      35.07498221 </v>
    </varray>
    <i name="volume">   5556.45096937 </i>
    <varray name="rec_basis" >
     <v>      -0.00000000       0.11236084       0.00000000 </v>
     <v>      -0.05618042      -0.05618042       0.00000000 </v>
     <v>       0.00000000       0.00000000       0.02851035 </v>
    </varray>
   </crystal>
   <varray name="positions" >
    <v>       0.00000000       0.00000003       0.23090209 </v>
    <v>      -0.00000000       0.16666699       0.17112564 </v>
    <v>       0.00000000       0.00000003       0.35049259 </v>
    <v>       0.00000000       0.16666699       0.29061447 </v>
    <v>      -0.00000000       0.00000003       0.47011043 </v>
    <v>       0.00000000       0.16666699       0.41029476 </v>
    <v>      -0.00000000       0.00000003       0.58970524 </v>
    <v>       0.00000000       0.16666699       0.52988957 </v>
    <v>       0.00000000       0.00000003       0.70938553 </v>
    <v>      -0.00000000       0.16666699       0.64950741 </v>
    <v>      -0.00000000       0.00000003       0.82887436 </v>
    <v>       0.00000000       0.16666699       0.76909791 </v>
    <v>       0.33334056      -0.00001864       0.23089557 </v>
    <v>       0.33332186       0.16666714       0.17114081 </v>
    <v>       0.33335470      -0.00000903       0.35047755 </v>
    <v>       0.33334867       0.16664465       0.29061965 </v>
    <v>       0.33334820      -0.00001266       0.47009472 </v>
    <v>       0.33331692       0.16668223       0.41030964 </v>
    <v>       0.33331692       0.00001528       0.58969036 </v>
    <v>       0.33334820       0.16665430       0.52990528 </v>
    <v>       0.33334867      -0.00002230       0.70938035 </v>
    <v>       0.33335470       0.16665792       0.64952245 </v>
    <v>       0.33332186       0.00000018       0.82885919 </v>
    <v>       0.33334056       0.16664831       0.76910443 </v>
    <v>      -0.00000000       0.33333337       0.23090209 </v>
    <v>      -0.00000000       0.50000032       0.17112564 </v>
    <v>      -0.00000000       0.33333336       0.35049259 </v>
    <v>       0.00000000       0.50000032       0.29061447 </v>
    <v>       0.00000000       0.33333336       0.47011043 </v>
    <v>       0.00000000       0.50000032       0.41029476 </v>
    <v>       0.00000000       0.33333336       0.58970524 </v>
    <v>       0.00000000       0.50000032       0.52988957 </v>
    <v>       0.00000000       0.33333337       0.70938553 </v>
    <v>      -0.00000000       0.50000032       0.64950741 </v>
    <v>       0.00000000       0.33333336       0.82887436 </v>
    <v>      -0.00000000       0.50000032       0.76909791 </v>
    <v>       0.66665944       0.00001870       0.23089557 </v>
    <v>       0.66667814       0.16666684       0.17114081 </v>
    <v>       0.66664530       0.00000909       0.35047755 </v>
    <v>       0.66665133       0.16668932       0.29061965 </v>
    <v>       0.66665180       0.00001272       0.47009472 </v>
    <v>       0.66668308       0.16665174       0.41030964 </v>
    <v>       0.66668308      -0.00001521       0.58969036 </v>
    <v>       0.66665180       0.16667967       0.52990528 </v>
    <v>       0.66665133       0.00002237       0.70938035 </v>
    <v>       0.66664530       0.16667605       0.64952245 </v>
    <v>       0.66667814      -0.00000013       0.82885919 </v>
    <v>       0.66665944       0.16668566       0.76910443 </v>
    <v>       0.33334056       0.33331469       0.23089557 </v>
    <v>       0.33332186       0.50000047       0.17114081 </v>
    <v>       0.33335470       0.33332430       0.35047755 </v>
    <v>       0.33334867       0.49997798       0.29061965 </v>
    <v>       0.33334820       0.33332068       0.47009472 </v>
    <v>       0.33331692       0.50001557       0.41030964 </v>
    <v>       0.33331692       0.33334861       0.58969036 </v>
    <v>       0.33334820       0.49998763       0.52990528 </v>
[...]
       <r>    -3.4029     6.4773     1.3119 </r>
       <r>    -3.3790     6.4097     1.4651 </r>
       <r>    -3.3551     6.0358     1.6094 </r>
       <r>    -3.3312     5.2815     1.7356 </r>
       <r>    -3.3073     4.2621     1.8375 </r>
       <r>    -3.2834     3.2420     1.9150 </r>
       <r>    -3.2595     2.5375     1.9756 </r>
       <r>    -3.2356     2.4366     2.0339 </r>
       <r>    -3.2117     3.1706     2.1097 </r>
       <r>    -3.1878     4.9124     2.2271 </r>
       <r>    -3.1639     7.7532     2.4124 </r>
       <r>    -3.1400    11.6281     2.6904 </r>
       <r>    -3.1161    16.2175     3.0780 </r>
       <r>    -3.0922    20.9009     3.5776 </r>
       <r>    -3.0683    24.8643     4.1720 </r>
       <r>    -3.0444    27.3949     4.8268 </r>
       <r>    -3.0205    28.2457     5.5020 </r>
       <r>    -2.9966    27.8182     6.1670 </r>
       <r>    -2.9727    26.9577     6.8113 </r>
       <r>    -2.9488    26.4236     7.4430 </r>
       <r>    -2.9249    26.3876     8.0737 </r>
       <r>    -2.9010    26.3444     8.7035 </r>
       <r>    -2.8770    25.5226     9.3135 </r>
       <r>    -2.8531    23.4862     9.8749 </r>
       <r>    -2.8292    20.4848    10.3646 </r>
       <r>    -2.8053    17.3394    10.7791 </r>
       <r>    -2.7814    15.0245    11.1382 </r>
       <r>    -2.7575    14.2817    11.4796 </r>
       <r>    -2.7336    15.4628    11.8492 </r>
       <r>    -2.7097    18.5506    12.2927 </r>
       <r>    -2.6858    23.1968    12.8471 </r>
       <r>    -2.6619    28.7156    13.5335 </r>
       <r>    -2.6380    34.1216    14.3492 </r>
       <r>    -2.6141    38.3150    15.2650 </r>
       <r>    -2.5902    40.4055    16.2309 </r>
       <r>    -2.5663    40.0470    17.1882 </r>
       <r>    -2.5424    37.6186    18.0874 </r>
       <r>    -2.5185    34.1323    18.9033 </r>
       <r>    -2.4946    30.8453    19.6406 </r>
       <r>    -2.4707    28.7190    20.3271 </r>
       <r>    -2.4468    28.0138    20.9967 </r>
       <r>    -2.4229    28.3007    21.6732 </r>
       <r>    -2.3990    28.9070    22.3642 </r>
       <r>    -2.3751    29.4677    23.0686 </r>
       <r>    -2.3512    30.1433    23.7891 </r>
       <r>    -2.3273    31.3405    24.5383 </r>
       <r>    -2.3034    33.2090    25.3321 </r>
       <r>    -2.2795    35.3809    26.1778 </r>
       <r>    -2.2556    37.1665    27.0662 </r>
       <r>    -2.2316    37.9798    27.9741 </r>
       <r>    -2.2077    37.5858    28.8725 </r>
       <r>    -2.1838    36.0000    29.7330 </r>
       <r>    -2.1599    33.2522    30.5279 </r>
       <r>    -2.1360    29.3287    31.2290 </r>
       <r>    -2.1121    24.3491    31.8110 </r>
       <r>    -2.0882    18.7485    32.2591 </r>
       <r>    -2.0643    13.2325    32.5755 </r>
       <r>    -2.0404     8.5186    32.7791 </r>
       <r>    -2.0165     5.0844    32.9006 </r>
       <r>    -1.9926     3.1168    32.9751 </r>
       <r>    -1.9687     2.6704    33.0389 </r>
       <r>    -1.9448     3.8876    33.1319 </r>
       <r>    -1.9209     7.0927    33.3014 </r>
       <r>    -1.8970    12.6384    33.6035 </r>
       <r>    -1.8731    20.5216    34.0941 </r>
       <r>    -1.8492    29.9662    34.8104 </r>
       <r>    -1.8253    39.2990    35.7498 </r>
       <r>    -1.8014    46.3694    36.8582 </r>
       <r>    -1.7775    49.4292    38.0397 </r>
       <r>    -1.7536    48.0028    39.1871 </r>
       <r>    -1.7297    43.1802    40.2193 </r>
       <r>    -1.7058    37.0954    41.1060 </r>
       <r>    -1.6819    31.8859    41.8682 </r>
       <r>    -1.6580    28.7506    42.5554 </r>
       <r>    -1.6341    27.6255    43.2158 </r>
       <r>    -1.6102    27.5858    43.8752 </r>
       <r>    -1.5863    27.6385    44.5359 </r>
       <r>    -1.5623    27.3617    45.1899 </r>
       <r>    -1.5384    26.9995    45.8353 </r>
       <r>    -1.5145    27.0412    46.4817 </r>
       <r>    -1.4906    27.7028    47.1439 </r>
       <r>    -1.4667    28.7670    47.8315 </r>
       <r>    -1.4428    29.8873    48.5459 </r>
       <r>    -1.4189    31.0339    49.2877 </r>
       <r>    -1.3950    32.6452    50.0681 </r>
       <r>    -1.3711    35.3460    50.9130 </r>
       <r>    -1.3472    39.4888    51.8569 </r>
       <r>    -1.3233    44.9090    52.9304 </r>
       <r>    -1.2994    51.0510    54.1507 </r>
       <r>    -1.2755    57.3012    55.5204 </r>
       <r>    -1.2516    63.2379    57.0320 </r>
       <r>    -1.2277    68.6245    58.6724 </r>
       <r>    -1.2038    73.1938    60.4220 </r>
       <r>    -1.1799    76.4340    62.2491 </r>
       <r>    -1.1560    77.6314    64.1047 </r>
       <r>    -1.1321    76.2667    65.9278 </r>
       <r>    -1.1082    72.5487    67.6620 </r>
       <r>    -1.0843    67.6071    69.2780 </r>
       <r>    -1.0604    63.0106    70.7842 </r>
       <r>    -1.0365    59.8275    72.2143 </r>
       <r>    -1.0126    57.9503    73.5995 </r>
       <r>    -0.9887    56.3021    74.9454 </r>
       <r>    -0.9648    53.8339    76.2322 </r>
       <r>    -0.9409    50.5298    77.4400 </r>
       <r>    -0.9169    47.6220    78.5784 </r>
       <r>    -0.8930    46.8791    79.6990 </r>
       <r>    -0.8691    49.5374    80.8831 </r>
       <r>    -0.8452    55.5978    82.2121 </r>
       <r>    -0.8213    63.8024    83.7372 </r>
       <r>    -0.7974    72.1226    85.4612 </r>
       <r>    -0.7735    78.4221    87.3358 </r>
       <r>    -0.7496    81.0611    89.2734 </r>
       <r>    -0.7257    79.3167    91.1694 </r>
       <r>    -0.7018    73.4970    92.9262 </r>
       <r>    -0.6779    64.6901    94.4726 </r>
       <r>    -0.6540    54.2815    95.7701 </r>
       <r>    -0.6301    43.5408    96.8109 </r>
       <r>    -0.6062    33.4977    97.6116 </r>
       <r>    -0.5823    25.0659    98.2107 </r>
       <r>    -0.5584    19.1940    98.6696 </r>
       <r>    -0.5345    16.8659    99.0727 </r>
       <r>    -0.5106    18.9096    99.5247 </r>
       <r>    -0.4867    25.6481   100.1378 </r>
       <r>    -0.4628    36.4652   101.0095 </r>
       <r>    -0.4389    49.4782   102.1922 </r>
       <r>    -0.4150    61.6526   103.6659 </r>
       <r>    -0.3911    69.6114   105.3299 </r>
       <r>    -0.3672    70.9559   107.0260 </r>
       <r>    -0.3433    65.4130   108.5896 </r>
       <r>    -0.3194    55.0486   109.9054 </r>
       <r>    -0.2955    43.3228   110.9410 </r>
       <r>    -0.2715    33.5179   111.7422 </r>
       <r>    -0.2476    27.4269   112.3978 </r>
       <r>    -0.2237    24.9338   112.9938 </r>
       <r>    -0.1998    24.5387   113.5804 </r>
       <r>    -0.1759    24.4151   114.1640 </r>
       <r>    -0.1520    23.4256   114.7240 </r>
       <r>    -0.1281    21.6510   115.2415 </r>
       <r>    -0.1042    20.2749   115.7261 </r>
       <r>    -0.0803    20.9722   116.2275 </r>
       <r>    -0.0564    25.1233   116.8280 </r>
       <r>    -0.0325    33.1691   117.6209 </r>
       <r>    -0.0086    44.3048   118.6799 </r>
       <r>     0.0153    56.5999   120.0328 </r>
       <r>     0.0392    67.5325   121.6471 </r>
       <r>     0.0631    74.7919   123.4349 </r>
       <r>     0.0870    77.0602   125.2769 </r>
       <r>     0.1109    74.4325   127.0562 </r>
       <r>     0.1348    68.2802   128.6883 </r>
       <r>     0.1587    60.6228   130.1374 </r>
       <r>     0.1826    53.3085   131.4117 </r>
       <r>     0.2065    47.3887   132.5444 </r>
       <r>     0.2304    42.9683   133.5715 </r>
       <r>     0.2543    39.5791   134.5176 </r>
       <r>     0.2782    36.8183   135.3977 </r>
       <r>     0.3021    34.8169   136.2300 </r>
       <r>     0.3260    34.2085   137.0477 </r>
       <r>     0.3499    35.6416   137.8996 </r>
       <r>     0.3738    39.2322   138.8374 </r>
       <r>     0.3978    44.3882   139.8985 </r>
       <r>     0.4217    50.1378   141.0969 </r>
       <r>     0.4456    55.7123   142.4287 </r>
       <r>     0.4695    60.9710   143.8861 </r>
       <r>     0.4934    66.3815   145.4729 </r>
       <r>     0.5173    72.5681   147.2075 </r>
       <r>     0.5412    79.7158   149.1130 </r>
       <r>     0.5651    87.2096   151.1976 </r>
       <r>     0.5890    93.7312   153.4382 </r>
       <r>     0.6129    97.7402   155.7745 </r>
       <r>     0.6368    98.0443   158.1181 </r>
       <r>     0.6607    94.1781   160.3693 </r>
       <r>     0.6846    86.4943   162.4369 </r>
       <r>     0.7085    76.0579   164.2549 </r>
       <r>     0.7324    64.4693   165.7960 </r>
       <r>     0.7563    53.6587   167.0786 </r>
       <r>     0.7802    45.5884   168.1683 </r>
       <r>     0.8041    41.8023   169.1676 </r>
       <r>     0.8280    42.8938   170.1929 </r>
       <r>     0.8519    48.1367   171.3435 </r>
       <r>     0.8758    55.5585   172.6716 </r>
       <r>     0.8997    62.5549   174.1669 </r>
       <r>     0.9236    66.8335   175.7644 </r>
       <r>     0.9475    67.2557   177.3721 </r>
       <r>     0.9714    64.1625   178.9058 </r>
       <r>     0.9953    59.0346   180.3170 </r>
       <r>     1.0192    53.6990   181.6006 </r>
       <r>     1.0432    49.5452   182.7849 </r>
       <r>     1.0671    47.2041   183.9132 </r>
       <r>     1.0910    46.8195   185.0324 </r>
       <r>     1.1149    48.6159   186.1945 </r>
       <r>     1.1388    53.2210   187.4666 </r>
       <r>     1.1627    61.3778   188.9338 </r>
       <r>     1.1866    73.1853   190.6832 </r>
       <r>     1.2105    87.4621   192.7739 </r>
       <r>     1.2344   101.8230   195.2078 </r>
       <r>     1.2583   113.5364   197.9217 </r>
       <r>     1.2822   120.6079   200.8047 </r>
       <r>     1.3061   122.3769   203.7300 </r>
       <r>     1.3300   119.3569   206.5830 </r>
       <r>     1.3539   112.6486   209.2757 </r>
       <r>     1.3778   103.4199   211.7479 </r>
       <r>     1.4017    92.6561   213.9627 </r>
       <r>     1.4256    81.0787   215.9008 </r>
       <r>     1.4495    69.1369   217.5534 </r>
       <r>     1.4734    57.1225   218.9188 </r>
       <r>     1.4973    45.4180   220.0045 </r>
       <r>     1.5212    34.6910   220.8337 </r>
       <r>     1.5451    25.8002   221.4504 </r>
       <r>     1.5690    19.4145   221.9145 </r>
       <r>     1.5929    15.6152   222.2878 </r>
       <r>     1.6168    13.7893   222.6174 </r>
       <r>     1.6407    12.9025   222.9258 </r>
       <r>     1.6646    11.9724   223.2120 </r>
       <r>     1.6886    10.4549   223.4619 </r>
       <r>     1.7125     8.3469   223.6614 </r>
       <r>     1.7364     6.0110   223.8051 </r>
       <r>     1.7603     3.8818   223.8979 </r>
       <r>     1.7842     2.2425   223.9515 </r>
       <r>     1.8081     1.1576   223.9792 </r>
       <r>     1.8320     0.5338   223.9919 </r>
       <r>     1.8559     0.2198   223.9972 </r>
       <r>     1.8798     0.0808   223.9991 </r>
       <r>     1.9037     0.0265   223.9998 </r>
       <r>     1.9276     0.0078   223.9999 </r>
       <r>     1.9515     0.0020   224.0000 </r>
       <r>     1.9754     0.0005   224.0000 </r>
       <r>     1.9993     0.0001   224.0000 </r>
       <r>     2.0232     0.0000   224.0000 </r>
       <r>     2.0471     0.0000   224.0000 </r>
       <r>     2.0710     0.0000   224.0000 </r>
       <r>     2.0949     0.0000   224.0000 </r>
       <r>     2.1188     0.0000   224.0000 </r>
       <r>     2.1427     0.0000   224.0000 </r>
       <r>     2.1666     0.0000   224.0000 </r>
       <r>     2.1905     0.0000   224.0000 </r>
       <r>     2.2144     0.0000   224.0000 </r>
       <r>     2.2383     0.0000   224.0000 </r>
       <r>     2.2622     0.0000   224.0000 </r>
       <r>     2.2861     0.0000   224.0000 </r>
       <r>     2.3100     0.0000   224.0000 </r>
       <r>     2.3339     0.0000   224.0000 </r>
       <r>     2.3579     0.0000   224.0000 </r>
       <r>     2.3818     0.0000   224.0000 </r>
       <r>     2.4057     0.0000   224.0000 </r>
       <r>     2.4296     0.0000   224.0000 </r>
       <r>     2.4535     0.0000   224.0000 </r>
       <r>     2.4774     0.0000   224.0000 </r>
       <r>     2.5013     0.0000   224.0000 </r>
       <r>     2.5252     0.0000   224.0000 </r>
       <r>     2.5491     0.0000   224.0000 </r>
       <r>     2.5730     0.0000   224.0000 </r>
       <r>     2.5969     0.0000   224.0000 </r>
       <r>     2.6208     0.0000   224.0000 </r>
       <r>     2.6447     0.0000   224.0000 </r>
      </set>
     </set>
    </array>
   </total>
  </dos>
 </calculation>
 <structure name="finalpos" >
  <crystal>
   <varray name="basis" >
    <v>      -8.89989772       8.89989772       0.00000000 </v>
    <v>     -17.79979544      -0.00000000       0.00000000 </v>
    <v>       0.00000000       0.00000000      35.07498221 </v>
   </varray>
   <i name="volume">   5556.45096937 </i>
   <varray name="rec_basis" >
    <v>      -0.00000000       0.11236084       0.00000000 </v>
    <v>      -0.05618042      -0.05618042       0.00000000 </v>
    <v>       0.00000000       0.00000000       0.02851035 </v>
   </varray>
  </crystal>
  <varray name="positions" >
   <v>       0.00014528      -0.00006754       0.23518003 </v>
   <v>      -0.00026327       0.16703573       0.17797909 </v>
   <v>       0.00022897      -0.00014278       0.35181558 </v>
   <v>       0.00031266       0.16651612       0.29108396 </v>
   <v>      -0.00018785       0.00013048       0.47042085 </v>
   <v>      -0.00001996       0.16669259       0.41195662 </v>
   <v>      -0.00027270       0.00026494       0.58805005 </v>
   <v>      -0.00022914       0.16685757       0.52964922 </v>
   <v>      -0.00014400       0.00009389       0.70881403 </v>
   <v>      -0.00003324       0.16684010       0.64821483 </v>
   <v>      -0.00026803       0.00021968       0.82178013 </v>
   <v>      -0.00003524       0.16665102       0.76477651 </v>
   <v>       0.33276787      -0.00097742       0.23544027 </v>
   <v>       0.33383300       0.16587226       0.17806265 </v>
   <v>       0.33227238      -0.00081878       0.35211771 </v>
   <v>       0.33429100       0.16464776       0.29185313 </v>
   <v>       0.33362368      -0.00181148       0.46999755 </v>
   <v>       0.33337040       0.16520034       0.41138104 </v>
   <v>       0.33256948      -0.00096980       0.58855664 </v>
   <v>       0.33360070       0.16480590       0.53005425 </v>
   <v>       0.33404101      -0.00190970       0.70810926 </v>
   <v>       0.33241507       0.16556025       0.64776749 </v>
   <v>       0.33415694      -0.00086271       0.82191491 </v>
   <v>       0.33310198       0.16551614       0.76441055 </v>
   <v>       0.00013725       0.33326160       0.23516729 </v>
   <v>      -0.00036808       0.50055381       0.17802868 </v>
   <v>       0.00007776       0.33330876       0.35184533 </v>
   <v>       0.00031744       0.49987470       0.29108163 </v>
   <v>      -0.00012430       0.33346414       0.47036142 </v>
   <v>       0.00010226       0.49999626       0.41196266 </v>
   <v>      -0.00024909       0.33356373       0.58806980 </v>
   <v>      -0.00021763       0.50024548       0.52960914 </v>
   <v>      -0.00001720       0.33334292       0.70876515 </v>
   <v>      -0.00026140       0.50028920       0.64825688 </v>
   <v>       0.00003601       0.33331256       0.82180789 </v>
   <v>       0.00002162       0.49997618       0.76479889 </v>
   <v>       0.66744280       0.00103532       0.23542762 </v>
   <v>       0.66582739       0.16760903       0.17809516 </v>
   <v>       0.66810190       0.00056449       0.35211187 </v>
   <v>       0.66589008       0.16842466       0.29188846 </v>
   <v>       0.66603298       0.00189216       0.46996990 </v>
   <v>       0.66685267       0.16786481       0.41142031 </v>
   <v>       0.66663746       0.00114476       0.58867881 </v>
   <v>       0.66598740       0.16861118       0.53010766 </v>
   <v>       0.66600263       0.00171358       0.70810963 </v>
   <v>       0.66789863       0.16739010       0.64793113 </v>
   <v>       0.66614739       0.00064185       0.82196113 </v>
   <v>       0.66674817       0.16775338       0.76456624 </v>
   <v>       0.33274315       0.33235326       0.23544762 </v>
   <v>       0.33441570       0.49889858       0.17813811 </v>
   <v>       0.33231869       0.33250848       0.35212342 </v>
   <v>       0.33460011       0.49792880       0.29179862 </v>
   <v>       0.33376964       0.33143360       0.46990872 </v>
   <v>       0.33377006       0.49872691       0.41145903 </v>
   <v>       0.33291265       0.33206613       0.58865103 </v>
   <v>       0.33382574       0.49792839       0.53003221 </v>
   <v>       0.33406336       0.33153465       0.70814010 </v>
   <v>       0.33237975       0.49892727       0.64788374 </v>
   <v>       0.33398892       0.33257223       0.82191442 </v>
   <v>       0.33292034       0.49891420       0.76454857 </v>
   <v>       0.00010230       0.66668094       0.23520088 </v>
   <v>      -0.00045257       0.83380042       0.17803466 </v>
   <v>       0.00037679       0.66642875       0.35183655 </v>
   <v>       0.00034326       0.83308681       0.29112723 </v>
   <v>      -0.00015266       0.66671932       0.47039376 </v>
   <v>       0.00019986       0.83319597       0.41200758 </v>
   <v>      -0.00011233       0.66691505       0.58804294 </v>
   <v>      -0.00010597       0.83355552       0.52966313 </v>
   <v>       0.00018309       0.66671849       0.70885306 </v>
   <v>      -0.00014991       0.83354889       0.64820661 </v>
   <v>      -0.00030953       0.66677150       0.82180014 </v>
   <v>       0.00006614       0.83328499       0.76476282 </v>
   <v>       0.66754186       0.33427846       0.23546046 </v>
   <v>       0.66591482       0.50100782       0.17810152 </v>
   <v>       0.66811085       0.33406644       0.35207748 </v>
   <v>       0.66587559       0.50187652       0.29191810 </v>
   <v>       0.66630621       0.33519964       0.46997694 </v>
   <v>       0.66673911       0.50136432       0.41143131 </v>
   <v>       0.66664639       0.33424594       0.58871347 </v>
   <v>       0.66602805       0.50191675       0.53009391 </v>
   <v>       0.66619134       0.33490014       0.70818163 </v>
   <v>       0.66781115       0.50070371       0.64790285 </v>
   <v>       0.66604538       0.33422407       0.82191198 </v>
   <v>       0.66702657       0.50104402       0.76453000 </v>
   <v>       0.33292023       0.66574115       0.23549466 </v>
   <v>       0.33407349       0.83237641       0.17807707 </v>
   <v>       0.33243702       0.66576384       0.35211377 </v>
   <v>       0.33450240       0.83130153       0.29181409 </v>
   <v>       0.33345435       0.66501044       0.47002927 </v>
   <v>       0.33343266       0.83196009       0.41142545 </v>
   <v>       0.33293171       0.66542365       0.58864711 </v>
   <v>       0.33376502       0.83139311       0.53000708 </v>
   <v>       0.33400870       0.66493554       0.70810366 </v>
   <v>       0.33200740       0.83250436       0.64780065 </v>
   <v>       0.33407671       0.66580186       0.82193737 </v>
   <v>       0.33295122       0.83224036       0.76451050 </v>
   <v>       0.66746842       0.66771610       0.23545301 </v>
   <v>       0.66586890       0.83425384       0.17809921 </v>
   <v>       0.66804017       0.66739749       0.35211922 </v>
   <v>       0.66573196       0.83511493       0.29192270 </v>
   <v>       0.66618735       0.66859864       0.47000377 </v>
   <v>       0.66681524       0.83461184       0.41142391 </v>
   <v>       0.66652386       0.66778338       0.58867331 </v>
   <v>       0.66613195       0.83508809       0.53011814 </v>
   <v>       0.66585743       0.66841723       0.70815494 </v>
   <v>       0.66778354       0.83406184       0.64791078 </v>
   <v>       0.66615445       0.66738627       0.82195587 </v>
   <v>       0.66664078       0.83463077       0.76452078 </v>
  </varray>
 </structure>
</modeling>
