unknown system                          
           1
    -8.899898    8.899898    0.000000
   -17.799795   -0.000000    0.000000
     0.000000    0.000000   35.074982
   Na
   108
Direct configuration=     1
   0.00000000  0.00000003  0.23086889
   0.00000000  0.16666698  0.17106210
   0.00000000  0.00000003  0.35048270
   0.00000000  0.16666698  0.29067590
   0.00000000  0.00000003  0.47009650
   0.00000000  0.16666698  0.41028970
   0.00000000  0.00000003  0.58971030
   0.00000000  0.16666698  0.52990350
   0.00000000  0.00000003  0.70932410
   0.00000000  0.16666698  0.64951730
   0.00000000  0.00000003  0.82893790
   0.00000000  0.16666698  0.76913111
   0.33333333  0.00000003  0.23086889
   0.33333333  0.16666698  0.17106210
   0.33333333  0.00000003  0.35048270
   0.33333333  0.16666698  0.29067590
   0.33333333  0.00000003  0.47009650
   0.33333333  0.16666698  0.41028970
   0.33333333  0.00000003  0.58971030
   0.33333333  0.16666698  0.52990350
   0.33333333  0.00000003  0.70932410
   0.33333333  0.16666698  0.64951730
   0.33333333  0.00000003  0.82893790
   0.33333333  0.16666698  0.76913111
   0.00000000  0.33333337  0.23086889
   0.00000000  0.50000032  0.17106210
   0.00000000  0.33333337  0.35048270
   0.00000000  0.50000032  0.29067590
   0.00000000  0.33333337  0.47009650
   0.00000000  0.50000032  0.41028970
   0.00000000  0.33333337  0.58971030
   0.00000000  0.50000032  0.52990350
   0.00000000  0.33333337  0.70932410
   0.00000000  0.50000032  0.64951730
   0.00000000  0.33333337  0.82893790
   0.00000000  0.50000032  0.76913111
   0.66666667  0.00000003  0.23086889
   0.66666667  0.16666698  0.17106210
   0.66666667  0.00000003  0.35048270
   0.66666667  0.16666698  0.29067590
   0.66666667  0.00000003  0.47009650
   0.66666667  0.16666698  0.41028970
   0.66666667  0.00000003  0.58971030
   0.66666667  0.16666698  0.52990350
   0.66666667  0.00000003  0.70932410
   0.66666667  0.16666698  0.64951730
   0.66666667  0.00000003  0.82893790
   0.66666667  0.16666698  0.76913111
   0.33333333  0.33333337  0.23086889
   0.33333333  0.50000032  0.17106210
   0.33333333  0.33333337  0.35048270
   0.33333333  0.50000032  0.29067590
   0.33333333  0.33333337  0.47009650
   0.33333333  0.50000032  0.41028970
   0.33333333  0.33333337  0.58971030
   0.33333333  0.50000032  0.52990350
   0.33333333  0.33333337  0.70932410
   0.33333333  0.50000032  0.64951730
   0.33333333  0.33333337  0.82893790
   0.33333333  0.50000032  0.76913111
   0.00000000  0.66666670  0.23086889
   0.00000000  0.83333365  0.17106210
   0.00000000  0.66666670  0.35048270
   0.00000000  0.83333365  0.29067590
   0.00000000  0.66666670  0.47009650
   0.00000000  0.83333365  0.41028970
   0.00000000  0.66666670  0.58971030
   0.00000000  0.83333365  0.52990350
   0.00000000  0.66666670  0.70932410
   0.00000000  0.83333365  0.64951730
   0.00000000  0.66666670  0.82893790
   0.00000000  0.83333365  0.76913111
   0.66666667  0.33333337  0.23086889
   0.66666667  0.50000032  0.17106210
   0.66666667  0.33333337  0.35048270
   0.66666667  0.50000032  0.29067590
   0.66666667  0.33333337  0.47009650
   0.66666667  0.50000032  0.41028970
   0.66666667  0.33333337  0.58971030
   0.66666667  0.50000032  0.52990350
   0.66666667  0.33333337  0.70932410
   0.66666667  0.50000032  0.64951730
   0.66666667  0.33333337  0.82893790
   0.66666667  0.50000032  0.76913111
   0.33333333  0.66666670  0.23086889
   0.33333333  0.83333365  0.17106210
   0.33333333  0.66666670  0.35048270
   0.33333333  0.83333365  0.29067590
   0.33333333  0.66666670  0.47009650
   0.33333333  0.83333365  0.41028970
   0.33333333  0.66666670  0.58971030
   0.33333333  0.83333365  0.52990350
   0.33333333  0.66666670  0.70932410
   0.33333333  0.83333365  0.64951730
   0.33333333  0.66666670  0.82893790
   0.33333333  0.83333365  0.76913111
   0.66666667  0.66666670  0.23086889
   0.66666667  0.83333365  0.17106210
   0.66666667  0.66666670  0.35048270
   0.66666667  0.83333365  0.29067590
   0.66666667  0.66666670  0.47009650
   0.66666667  0.83333365  0.41028970
   0.66666667  0.66666670  0.58971030
   0.66666667  0.83333365  0.52990350
   0.66666667  0.66666670  0.70932410
   0.66666667  0.83333365  0.64951730
   0.66666667  0.66666670  0.82893790
   0.66666667  0.83333365  0.76913111
Direct configuration=     2
   0.00000000  0.00000003  0.23090209
  -0.00000000  0.16666699  0.17112564
   0.00000000  0.00000003  0.35049259
   0.00000000  0.16666699  0.29061447
  -0.00000000  0.00000003  0.47011043
   0.00000000  0.16666699  0.41029476
  -0.00000000  0.00000003  0.58970524
   0.00000000  0.16666699  0.52988957
   0.00000000  0.00000003  0.70938553
  -0.00000000  0.16666699  0.64950741
  -0.00000000  0.00000003  0.82887436
   0.00000000  0.16666699  0.76909791
   0.33334056 -0.00001864  0.23089557
   0.33332186  0.16666714  0.17114081
   0.33335470 -0.00000903  0.35047755
   0.33334867  0.16664465  0.29061965
   0.33334820 -0.00001266  0.47009472
   0.33331692  0.16668223  0.41030964
   0.33331692  0.00001528  0.58969036
   0.33334820  0.16665430  0.52990528
   0.33334867 -0.00002230  0.70938035
   0.33335470  0.16665792  0.64952245
   0.33332186  0.00000018  0.82885919
   0.33334056  0.16664831  0.76910443
  -0.00000000  0.33333337  0.23090209
  -0.00000000  0.50000032  0.17112564
  -0.00000000  0.33333336  0.35049259
   0.00000000  0.50000032  0.29061447
   0.00000000  0.33333336  0.47011043
   0.00000000  0.50000032  0.41029476
   0.00000000  0.33333336  0.58970524
   0.00000000  0.50000032  0.52988957
   0.00000000  0.33333337  0.70938553
  -0.00000000  0.50000032  0.64950741
   0.00000000  0.33333336  0.82887436
  -0.00000000  0.50000032  0.76909791
   0.66665944  0.00001870  0.23089557
   0.66667814  0.16666684  0.17114081
   0.66664530  0.00000909  0.35047755
   0.66665133  0.16668932  0.29061965
   0.66665180  0.00001272  0.47009472
   0.66668308  0.16665174  0.41030964
   0.66668308 -0.00001521  0.58969036
   0.66665180  0.16667967  0.52990528
   0.66665133  0.00002237  0.70938035
   0.66664530  0.16667605  0.64952245
   0.66667814 -0.00000013  0.82885919
   0.66665944  0.16668566  0.76910443
   0.33334056  0.33331469  0.23089557
   0.33332186  0.50000047  0.17114081
   0.33335470  0.33332430  0.35047755
   0.33334867  0.49997798  0.29061965
   0.33334820  0.33332068  0.47009472
   0.33331692  0.50001557  0.41030964
   0.33331692  0.33334861  0.58969036
   0.33334820  0.49998763  0.52990528
   0.33334867  0.33331103  0.70938035
   0.33335470  0.49999126  0.64952245
   0.33332186  0.33333351  0.82885919
   0.33334056  0.49998165  0.76910443
   0.00000000  0.66666670  0.23090209
  -0.00000000  0.83333365  0.17112564
  -0.00000000  0.66666670  0.35049259
   0.00000000  0.83333365  0.29061447
   0.00000000  0.66666670  0.47011043
  -0.00000000  0.83333365  0.41029476
  -0.00000000  0.66666670  0.58970524
   0.00000000  0.83333365  0.52988957
   0.00000000  0.66666670  0.70938553
  -0.00000000  0.83333365  0.64950741
  -0.00000000  0.66666669  0.82887436
   0.00000000  0.83333365  0.76909791
   0.66665944  0.33335204  0.23089557
   0.66667814  0.50000017  0.17114081
   0.66664530  0.33334243  0.35047755
   0.66665133  0.50002265  0.29061965
   0.66665180  0.33334605  0.47009472
   0.66668308  0.49998507  0.41030964
   0.66668308  0.33331812  0.58969036
   0.66665180  0.50001301  0.52990528
   0.66665133  0.33335570  0.70938035
   0.66664530  0.50000938  0.64952245
   0.66667814  0.33333321  0.82885919
   0.66665944  0.50001899  0.76910443
   0.33334056  0.66664803  0.23089557
   0.33332186  0.83333381  0.17114081
   0.33335470  0.66665764  0.35047755
   0.33334867  0.83331132  0.29061965
   0.33334820  0.66665401  0.47009472
   0.33331692  0.83334890  0.41030964
   0.33331692  0.66668194  0.58969036
   0.33334820  0.83332096  0.52990528
   0.33334867  0.66664436  0.70938035
   0.33335470  0.83332459  0.64952245
   0.33332186  0.66666685  0.82885919
   0.33334056  0.83331498  0.76910443
   0.66665944  0.66668537  0.23089557
   0.66667814  0.83333350  0.17114081
   0.66664530  0.66667576  0.35047755
   0.66665133  0.83335599  0.29061965
   0.66665180  0.66667939  0.47009472
   0.66668308  0.83331841  0.41030964
   0.66668308  0.66665145  0.58969036
   0.66665180  0.83334634  0.52990528
   0.66665133  0.66668903  0.70938035
   0.66664530  0.83334271  0.64952245
   0.66667814  0.66666654  0.82885919
   0.66665944  0.83335232  0.76910443
Direct configuration=     3
   0.00000000  0.00000003  0.23100171
  -0.00000000  0.16666700  0.17131628
   0.00000000  0.00000003  0.35052228
   0.00000000  0.16666700  0.29043019
  -0.00000000  0.00000003  0.47015224
   0.00000000  0.16666699  0.41030996
  -0.00000000  0.00000003  0.58969004
   0.00000000  0.16666699  0.52984776
   0.00000000  0.00000003  0.70956981
  -0.00000000  0.16666699  0.64947772
  -0.00000000  0.00000001  0.82868372
   0.00000000  0.16666699  0.76899829
   0.33336224 -0.00007466  0.23097562
   0.33328743  0.16666761  0.17137694
   0.33341881 -0.00003622  0.35046209
   0.33339467  0.16657765  0.29045089
   0.33339281 -0.00005073  0.47008939
   0.33326766  0.16672798  0.41036946
   0.33326767  0.00006101  0.58963054
   0.33339281  0.16661623  0.52991061
   0.33339467 -0.00008931  0.70954911
   0.33341881  0.16663075  0.64953791
   0.33328743  0.00000061  0.82862306
   0.33336224  0.16659230  0.76902438
  -0.00000000  0.33333336  0.23100171
  -0.00000000  0.50000034  0.17131628
  -0.00000000  0.33333336  0.35052228
   0.00000000  0.50000033  0.29043019
   0.00000000  0.33333336  0.47015224
   0.00000000  0.50000033  0.41030996
   0.00000000  0.33333336  0.58969004
   0.00000000  0.50000033  0.52984776
   0.00000000  0.33333336  0.70956981
  -0.00000000  0.50000032  0.64947772
   0.00000000  0.33333334  0.82868372
  -0.00000000  0.50000033  0.76899829
   0.66663776  0.00007471  0.23097562
   0.66671257  0.16666639  0.17137694
   0.66658119  0.00003627  0.35046209
   0.66660533  0.16675633  0.29045089
   0.66660719  0.00005078  0.47008939
   0.66673233  0.16660601  0.41036946
   0.66673233 -0.00006096  0.58963054
   0.66660719  0.16671775  0.52991061
   0.66660533  0.00008936  0.70954911
   0.66658119  0.16670324  0.64953791
   0.66671257 -0.00000060  0.82862306
   0.66663776  0.16674167  0.76902438
   0.33336224  0.33325868  0.23097562
   0.33328743  0.50000094  0.17137694
   0.33341881  0.33329711  0.35046209
   0.33339467  0.49991099  0.29045089
   0.33339281  0.33328260  0.47008939
   0.33326767  0.50006131  0.41036946
   0.33326767  0.33339434  0.58963054
   0.33339281  0.49994957  0.52991061
   0.33339467  0.33324402  0.70954911
   0.33341881  0.49996408  0.64953791
   0.33328743  0.33333395  0.82862306
   0.33336224  0.49992564  0.76902438
   0.00000000  0.66666669  0.23100171
  -0.00000000  0.83333367  0.17131628
  -0.00000000  0.66666669  0.35052228
   0.00000000  0.83333366  0.29043019
   0.00000000  0.66666669  0.47015224
  -0.00000000  0.83333366  0.41030996
  -0.00000000  0.66666669  0.58969004
   0.00000000  0.83333366  0.52984776
   0.00000000  0.66666669  0.70956981
  -0.00000000  0.83333366  0.64947772
  -0.00000000  0.66666668  0.82868372
   0.00000000  0.83333366  0.76899829
   0.66663776  0.33340804  0.23097562
   0.66671257  0.49999972  0.17137694
   0.66658119  0.33336961  0.35046209
   0.66660533  0.50008966  0.29045089
   0.66660719  0.33338412  0.47008939
   0.66673233  0.49993934  0.41036946
   0.66673233  0.33327238  0.58963054
   0.66660719  0.50005108  0.52991061
   0.66660533  0.33342270  0.70954911
   0.66658118  0.50003657  0.64953791
   0.66671258  0.33333273  0.82862306
   0.66663776  0.50007501  0.76902438
   0.33336224  0.66659201  0.23097562
   0.33328743  0.83333427  0.17137694
   0.33341881  0.66663045  0.35046209
   0.33339467  0.83324432  0.29045089
   0.33339281  0.66661594  0.47008939
   0.33326766  0.83339464  0.41036946
   0.33326767  0.66672768  0.58963054
   0.33339281  0.83328290  0.52991061
   0.33339467  0.66657736  0.70954911
   0.33341881  0.83329741  0.64953791
   0.33328743  0.66666728  0.82862306
   0.33336224  0.83325897  0.76902438
   0.66663776  0.66674138  0.23097562
   0.66671257  0.83333306  0.17137694
   0.66658119  0.66670294  0.35046209
   0.66660533  0.83342299  0.29045089
   0.66660719  0.66671745  0.47008939
   0.66673233  0.83327268  0.41036946
   0.66673234  0.66660571  0.58963054
   0.66660719  0.83338441  0.52991061
   0.66660533  0.66675603  0.70954911
   0.66658119  0.83336991  0.64953791
   0.66671257  0.66666607  0.82862306
   0.66663776  0.83340834  0.76902438
Direct configuration=     4
   0.00000000  0.00000002  0.23120094
  -0.00000000  0.16666703  0.17169756
   0.00000000  0.00000001  0.35058165
   0.00000001  0.16666701  0.29006164
  -0.00000000  0.00000002  0.47023584
   0.00000000  0.16666701  0.41034036
  -0.00000000  0.00000002  0.58965964
   0.00000000  0.16666701  0.52976415
   0.00000000  0.00000001  0.70993836
  -0.00000001  0.16666700  0.64941835
  -0.00000000 -0.00000003  0.82830243
   0.00000000  0.16666701  0.76879906
   0.33340561 -0.00018670  0.23113572
   0.33321857  0.16666854  0.17184920
   0.33354703 -0.00009060  0.35043117
   0.33348667  0.16644366  0.29011339
   0.33348202 -0.00012688  0.47007873
   0.33316916  0.16681947  0.41048910
   0.33316917  0.00015247  0.58951089
   0.33348202  0.16654011  0.52992127
   0.33348667 -0.00022333  0.70988662
   0.33354703  0.16657639  0.64956883
   0.33321857  0.00000149  0.82815079
   0.33340561  0.16648029  0.76886428
  -0.00000001  0.33333335  0.23120094
  -0.00000000  0.50000036  0.17169756
  -0.00000000  0.33333335  0.35058165
   0.00000000  0.50000035  0.29006164
   0.00000000  0.33333335  0.47023584
   0.00000000  0.50000034  0.41034036
   0.00000000  0.33333335  0.58965964
   0.00000001  0.50000034  0.52976415
   0.00000000  0.33333335  0.70993836
  -0.00000000  0.50000033  0.64941835
   0.00000000  0.33333330  0.82830244
  -0.00000000  0.50000035  0.76879906
   0.66659440  0.00018672  0.23113572
   0.66678143  0.16666550  0.17184921
   0.66645297  0.00009063  0.35043117
   0.66651333  0.16689034  0.29011338
   0.66651798  0.00012691  0.47007874
   0.66683084  0.16651455  0.41048911
   0.66683084 -0.00015244  0.58951089
   0.66651798  0.16679389  0.52992126
   0.66651333  0.00022335  0.70988662
   0.66645297  0.16675762  0.64956883
   0.66678143 -0.00000155  0.82815079
   0.66659440  0.16685371  0.76886428
   0.33340560  0.33314664  0.23113572
   0.33321857  0.50000187  0.17184920
   0.33354703  0.33324274  0.35043117
   0.33348667  0.49977700  0.29011338
   0.33348202  0.33320646  0.47007874
   0.33316916  0.50015280  0.41048910
   0.33316916  0.33348581  0.58951089
   0.33348202  0.49987344  0.52992127
   0.33348667  0.33311001  0.70988662
   0.33354703  0.49990973  0.64956883
   0.33321857  0.33333482  0.82815080
   0.33340561  0.49981362  0.76886428
   0.00000000  0.66666668  0.23120094
  -0.00000001  0.83333369  0.17169757
  -0.00000000  0.66666668  0.35058165
   0.00000001  0.83333368  0.29006164
   0.00000000  0.66666668  0.47023584
  -0.00000000  0.83333368  0.41034036
  -0.00000000  0.66666668  0.58965964
   0.00000000  0.83333368  0.52976416
   0.00000000  0.66666668  0.70993836
  -0.00000000  0.83333366  0.64941836
  -0.00000000  0.66666664  0.82830244
   0.00000000  0.83333368  0.76879906
   0.66659439  0.33352006  0.23113572
   0.66678144  0.49999883  0.17184921
   0.66645297  0.33342397  0.35043117
   0.66651332  0.50022368  0.29011338
   0.66651798  0.33346024  0.47007874
   0.66683084  0.49984788  0.41048911
   0.66683084  0.33318089  0.58951089
   0.66651798  0.50012723  0.52992126
   0.66651333  0.33355669  0.70988662
   0.66645296  0.50009096  0.64956883
   0.66678144  0.33333177  0.82815080
   0.66659440  0.50018705  0.76886428
   0.33340561  0.66647997  0.23113572
   0.33321857  0.83333521  0.17184920
   0.33354704  0.66657607  0.35043117
   0.33348667  0.83311033  0.29011339
   0.33348202  0.66653979  0.47007873
   0.33316916  0.83348614  0.41048910
   0.33316916  0.66681914  0.58951089
   0.33348202  0.83320678  0.52992127
   0.33348667  0.66644334  0.70988661
   0.33354703  0.83324306  0.64956883
   0.33321857  0.66666816  0.82815080
   0.33340561  0.83314696  0.76886428
   0.66659439  0.66685339  0.23113572
   0.66678143  0.83333217  0.17184921
   0.66645297  0.66675729  0.35043117
   0.66651333  0.83355701  0.29011338
   0.66651798  0.66679358  0.47007874
   0.66683084  0.83318122  0.41048911
   0.66683084  0.66651422  0.58951089
   0.66651798  0.83346056  0.52992126
   0.66651333  0.66689003  0.70988662
   0.66645297  0.83342429  0.64956883
   0.66678143  0.66666512  0.82815079
   0.66659439  0.83352038  0.76886428
Direct configuration=     5
   0.00000000 -0.00000000  0.23159940
  -0.00000001  0.16666708  0.17246012
   0.00000000 -0.00000001  0.35070038
   0.00000001  0.16666705  0.28932453
  -0.00000000  0.00000000  0.47040306
   0.00000000  0.16666704  0.41040115
  -0.00000000 -0.00000001  0.58959885
   0.00000000  0.16666705  0.52959694
   0.00000001 -0.00000001  0.71067547
  -0.00000001  0.16666703  0.64929962
  -0.00000001 -0.00000010  0.82753987
   0.00000000  0.16666704  0.76840059
   0.33349233 -0.00041078  0.23145592
   0.33308085  0.16667041  0.17279373
   0.33380347 -0.00019935  0.35036933
   0.33367067  0.16617567  0.28943837
   0.33366044 -0.00027917  0.47005742
   0.33297215  0.16700245  0.41072839
   0.33297216  0.00033540  0.58927160
   0.33366044  0.16638787  0.52994259
   0.33367068 -0.00049136  0.71056164
   0.33380347  0.16646768  0.64963067
   0.33308085  0.00000323  0.82720626
   0.33349234  0.16625625  0.76854408
  -0.00000002  0.33333334  0.23159941
  -0.00000001  0.50000042  0.17246012
  -0.00000001  0.33333333  0.35070038
   0.00000000  0.50000039  0.28932453
   0.00000001  0.33333332  0.47040306
   0.00000000  0.50000037  0.41040114
   0.00000000  0.33333333  0.58959885
   0.00000001  0.50000037  0.52959694
   0.00000000  0.33333333  0.71067547
  -0.00000001  0.50000036  0.64929962
   0.00000001  0.33333321  0.82753988
  -0.00000000  0.50000038  0.76840059
   0.66650768  0.00041075  0.23145592
   0.66691916  0.16666373  0.17279374
   0.66619652  0.00019934  0.35036933
   0.66632932  0.16715838  0.28943836
   0.66633956  0.00027916  0.47005742
   0.66702784  0.16633164  0.41072840
   0.66702784 -0.00033541  0.58927160
   0.66633955  0.16694619  0.52994258
   0.66632933  0.00049134  0.71056163
   0.66619652  0.16686638  0.64963067
   0.66691915 -0.00000345  0.82720626
   0.66650768  0.16707779  0.76854408
   0.33349233  0.33292257  0.23145592
   0.33308086  0.50000374  0.17279373
   0.33380347  0.33313398  0.35036933
   0.33367068  0.49950901  0.28943837
   0.33366045  0.33305416  0.47005742
   0.33297216  0.50033578  0.41072839
   0.33297216  0.33366874  0.58927161
   0.33366044  0.49972119  0.52994259
   0.33367068  0.33284198  0.71056163
   0.33380346  0.49980103  0.64963067
   0.33308086  0.33333656  0.82720627
   0.33349234  0.49958959  0.76854408
   0.00000000  0.66666666  0.23159941
  -0.00000001  0.83333375  0.17246013
  -0.00000000  0.66666666  0.35070038
   0.00000001  0.83333371  0.28932453
   0.00000000  0.66666666  0.47040306
  -0.00000000  0.83333371  0.41040114
  -0.00000000  0.66666666  0.58959886
   0.00000000  0.83333371  0.52959694
   0.00000000  0.66666667  0.71067547
  -0.00000001  0.83333368  0.64929962
  -0.00000001  0.66666656  0.82753988
   0.00000000  0.83333371  0.76840059
   0.66650767  0.33374409  0.23145592
   0.66691916  0.49999706  0.17279374
   0.66619653  0.33353268  0.35036933
   0.66632931  0.50049171  0.28943836
   0.66633956  0.33361248  0.47005742
   0.66702784  0.49966496  0.41072840
   0.66702784  0.33299792  0.58927160
   0.66633956  0.50027952  0.52994258
   0.66632932  0.33382468  0.71056163
   0.66619651  0.50019972  0.64963067
   0.66691917  0.33332986  0.82720627
   0.66650767  0.50041112  0.76854407
   0.33349233  0.66625590  0.23145592
   0.33308086  0.83333708  0.17279373
   0.33380348  0.66646731  0.35036933
   0.33367067  0.83284234  0.28943837
   0.33366045  0.66638750  0.47005741
   0.33297216  0.83366912  0.41072839
   0.33297216  0.66700206  0.58927161
   0.33366044  0.83305453  0.52994258
   0.33367068  0.66617531  0.71056163
   0.33380347  0.83313435  0.64963067
   0.33308084  0.66666991  0.82720627
   0.33349233  0.83292293  0.76854408
   0.66650767  0.66707742  0.23145592
   0.66691916  0.83333039  0.17279375
   0.66619653  0.66686601  0.35036933
   0.66632932  0.83382504  0.28943836
   0.66633956  0.66694583  0.47005742
   0.66702784  0.83299830  0.41072840
   0.66702785  0.66633125  0.58927161
   0.66633955  0.83361285  0.52994258
   0.66632932  0.66715802  0.71056163
   0.66619653  0.83353305  0.64963067
   0.66691914  0.66666323  0.82720626
   0.66650767  0.83374445  0.76854407
Direct configuration=     6
   0.00000001 -0.00000004  0.23239633
  -0.00000001  0.16666719  0.17398525
   0.00000001 -0.00000005  0.35093786
   0.00000002  0.16666712  0.28785031
  -0.00000001 -0.00000003  0.47073749
   0.00000000  0.16666710  0.41052272
  -0.00000001 -0.00000005  0.58947728
   0.00000001  0.16666712  0.52926251
   0.00000002 -0.00000006  0.71214969
  -0.00000003  0.16666708  0.64906215
  -0.00000002 -0.00000025  0.82601475
   0.00000001  0.16666709  0.76760366
   0.33366579 -0.00085894  0.23209633
   0.33280542  0.16667415  0.17468278
   0.33431636 -0.00041686  0.35024566
   0.33403868  0.16563970  0.28808834
   0.33401729 -0.00058375  0.47001478
   0.33257814  0.16736841  0.41120697
   0.33257816  0.00070126  0.58879303
   0.33401728  0.16608338  0.52998522
   0.33403870 -0.00102743  0.71191167
   0.33431636  0.16625026  0.64975434
   0.33280541  0.00000671  0.82531719
   0.33366580  0.16580818  0.76790368
  -0.00000003  0.33333331  0.23239634
  -0.00000001  0.50000053  0.17398524
  -0.00000002  0.33333328  0.35093786
   0.00000000  0.50000046  0.28785031
   0.00000001  0.33333328  0.47073749
   0.00000001  0.50000044  0.41052272
   0.00000001  0.33333328  0.58947727
   0.00000002  0.50000043  0.52926251
   0.00000000  0.33333329  0.71214969
  -0.00000002  0.50000040  0.64906215
   0.00000001  0.33333305  0.82601477
  -0.00000001  0.50000045  0.76760366
   0.66633423  0.00085881  0.23209632
   0.66719460  0.16666018  0.17468281
   0.66568364  0.00041677  0.35024566
   0.66596130  0.16769444  0.28808832
   0.66598271  0.00058365  0.47001478
   0.66742184  0.16596580  0.41120698
   0.66742185 -0.00070136  0.58879303
   0.66598270  0.16725077  0.52998521
   0.66596132  0.00102731  0.71191167
   0.66568364  0.16708391  0.64975435
   0.66719459 -0.00000726  0.82531719
   0.66633423  0.16752593  0.76790367
   0.33366577  0.33247443  0.23209632
   0.33280543  0.50000747  0.17468277
   0.33431634  0.33291646  0.35024566
   0.33403869  0.49897304  0.28808834
   0.33401730  0.33274957  0.47001478
   0.33257815  0.50070174  0.41120696
   0.33257815  0.33403459  0.58879303
   0.33401729  0.49941669  0.52998522
   0.33403869  0.33230591  0.71191166
   0.33431633  0.49958362  0.64975434
   0.33280543  0.33334004  0.82531722
   0.33366581  0.49914151  0.76790367
   0.00000001  0.66666661  0.23239634
  -0.00000003  0.83333385  0.17398526
  -0.00000000  0.66666662  0.35093786
   0.00000003  0.83333378  0.28785031
   0.00000001  0.66666662  0.47073748
  -0.00000000  0.83333377  0.41052272
  -0.00000001  0.66666662  0.58947728
   0.00000001  0.83333378  0.52926251
   0.00000000  0.66666663  0.71214969
  -0.00000001  0.83333372  0.64906215
  -0.00000002  0.66666642  0.82601476
   0.00000001  0.83333378  0.76760366
   0.66633422  0.33419215  0.23209633
   0.66719460  0.49999350  0.17468280
   0.66568366  0.33375012  0.35024566
   0.66596128  0.50102778  0.28808832
   0.66598271  0.33391698  0.47001478
   0.66742185  0.49929912  0.41120698
   0.66742185  0.33263198  0.58879303
   0.66598271  0.50058410  0.52998521
   0.66596130  0.33436066  0.71191167
   0.66568362  0.50041725  0.64975435
   0.66719462  0.33332604  0.82531721
   0.66633422  0.50085927  0.76790366
   0.33366579  0.66580774  0.23209633
   0.33280544  0.83334082  0.17468279
   0.33431637  0.66624979  0.35024566
   0.33403868  0.83230636  0.28808834
   0.33401730  0.66608292  0.47001478
   0.33257814  0.83403508  0.41120696
   0.33257815  0.66736792  0.58879303
   0.33401728  0.83275004  0.52998522
   0.33403869  0.66563925  0.71191166
   0.33431634  0.83291693  0.64975434
   0.33280540  0.66667341  0.82531721
   0.33366578  0.83247487  0.76790369
   0.66633421  0.66752549  0.23209632
   0.66719460  0.83332683  0.17468282
   0.66568365  0.66708344  0.35024566
   0.66596130  0.83436111  0.28808832
   0.66598271  0.66725033  0.47001479
   0.66742185  0.83263246  0.41120698
   0.66742186  0.66596531  0.58879303
   0.66598270  0.83391744  0.52998522
   0.66596131  0.66769400  0.71191167
   0.66568366  0.83375058  0.64975435
   0.66719456  0.66665944  0.82531720
   0.66633422  0.83419260  0.76790366
Direct configuration=     7
   0.00000001 -0.00000002  0.23209556
  -0.00000001  0.16666715  0.17340965
   0.00000001 -0.00000004  0.35084823
   0.00000002  0.16666709  0.28840670
  -0.00000001 -0.00000002  0.47061127
   0.00000000  0.16666708  0.41047684
  -0.00000001 -0.00000003  0.58952316
   0.00000001  0.16666709  0.52938873
   0.00000002 -0.00000004  0.71159330
  -0.00000002  0.16666706  0.64915177
  -0.00000001 -0.00000019  0.82659035
   0.00000001  0.16666707  0.76790444
   0.33360033 -0.00068980  0.23185463
   0.33290937  0.16667274  0.17396983
   0.33412279 -0.00033477  0.35029234
   0.33389979  0.16584198  0.28859786
   0.33388261 -0.00046879  0.47003087
   0.33272684  0.16723029  0.41102635
   0.33272686  0.00056318  0.58897365
   0.33388260  0.16619830  0.52996913
   0.33389981 -0.00082511  0.71140215
   0.33412279  0.16633232  0.64970766
   0.33290936  0.00000540  0.82603015
   0.33360033  0.16597729  0.76814538
  -0.00000003  0.33333332  0.23209556
  -0.00000001  0.50000049  0.17340964
  -0.00000002  0.33333330  0.35084823
   0.00000000  0.50000043  0.28840670
   0.00000001  0.33333330  0.47061127
   0.00000001  0.50000041  0.41047684
   0.00000001  0.33333330  0.58952316
   0.00000002  0.50000041  0.52938873
   0.00000000  0.33333331  0.71159330
  -0.00000002  0.50000038  0.64915177
   0.00000001  0.33333311  0.82659036
  -0.00000001  0.50000043  0.76790443
   0.66639969  0.00068971  0.23185463
   0.66709064  0.16666152  0.17396985
   0.66587721  0.00033471  0.35029234
   0.66610020  0.16749213  0.28859785
   0.66611739  0.00046873  0.47003087
   0.66727314  0.16610387  0.41102636
   0.66727315 -0.00056324  0.58897365
   0.66611738  0.16713582  0.52996912
   0.66610021  0.00082503  0.71140215
   0.66587721  0.16700182  0.64970767
   0.66709063 -0.00000582  0.82603015
   0.66639969  0.16735680  0.76814537
   0.33360031  0.33264356  0.23185463
   0.33290938  0.50000606  0.17396982
   0.33412278  0.33299856  0.35029234
   0.33389980  0.49917533  0.28859786
   0.33388262  0.33286453  0.47003087
   0.33272685  0.50056362  0.41102634
   0.33272685  0.33389651  0.58897365
   0.33388261  0.49953162  0.52996913
   0.33389980  0.33250823  0.71140214
   0.33412277  0.49966567  0.64970766
   0.33290938  0.33333872  0.82603017
   0.33360034  0.49931062  0.76814537
   0.00000001  0.66666663  0.23209557
  -0.00000002  0.83333381  0.17340965
  -0.00000000  0.66666664  0.35084823
   0.00000002  0.83333375  0.28840670
   0.00000001  0.66666663  0.47061127
  -0.00000000  0.83333375  0.41047684
  -0.00000000  0.66666664  0.58952316
   0.00000001  0.83333376  0.52938873
   0.00000000  0.66666664  0.71159330
  -0.00000001  0.83333371  0.64915177
  -0.00000002  0.66666647  0.82659036
   0.00000000  0.83333376  0.76790443
   0.66639968  0.33402305  0.23185463
   0.66709065  0.49999484  0.17396985
   0.66587723  0.33366806  0.35029234
   0.66610018  0.50082546  0.28859784
   0.66611739  0.33380206  0.47003087
   0.66727314  0.49943720  0.41102635
   0.66727314  0.33277009  0.58897365
   0.66611739  0.50046914  0.52996912
   0.66610020  0.33415838  0.71140215
   0.66587719  0.50033515  0.64970767
   0.66709066  0.33332748  0.82603016
   0.66639968  0.50069013  0.76814536
   0.33360032  0.66597688  0.23185463
   0.33290939  0.83333941  0.17396984
   0.33412280  0.66633188  0.35029233
   0.33389979  0.83250865  0.28859786
   0.33388262  0.66619787  0.47003087
   0.33272685  0.83389696  0.41102634
   0.33272686  0.66722984  0.58897365
   0.33388260  0.83286496  0.52996913
   0.33389980  0.66584156  0.71140214
   0.33412277  0.83299899  0.64970767
   0.33290936  0.66667209  0.82603017
   0.33360032  0.83264398  0.76814538
   0.66639967  0.66735638  0.23185463
   0.66709064  0.83332817  0.17396986
   0.66587722  0.66700138  0.35029234
   0.66610019  0.83415879  0.28859784
   0.66611739  0.66713540  0.47003088
   0.66727314  0.83277053  0.41102636
   0.66727315  0.66610343  0.58897365
   0.66611738  0.83380248  0.52996912
   0.66610020  0.66749171  0.71140215
   0.66587722  0.83366849  0.64970767
   0.66709061  0.66666087  0.82603016
   0.66639968  0.83402346  0.76814536
Direct configuration=     8
   0.00000001 -0.00000002  0.23204149
  -0.00000001  0.16666726  0.17396668
   0.00000000 -0.00000006  0.35066282
   0.00000002  0.16666713  0.28845125
  -0.00000000 -0.00000003  0.47040784
  -0.00000000  0.16666713  0.41044681
  -0.00000001 -0.00000006  0.58955319
   0.00000002  0.16666714  0.52959215
   0.00000003 -0.00000007  0.71154875
  -0.00000003  0.16666709  0.64933718
  -0.00000003 -0.00000035  0.82603331
   0.00000001  0.16666709  0.76795850
   0.33322415 -0.00051728  0.23198012
   0.33288748  0.16652195  0.17434463
   0.33384630 -0.00026534  0.35021121
   0.33371077  0.16608545  0.28871403
   0.33396224 -0.00049438  0.46995313
   0.33309186  0.16700892  0.41105347
   0.33309188  0.00034174  0.58894652
   0.33396222  0.16617276  0.53004688
   0.33371080 -0.00058170  0.71128598
   0.33384630  0.16640183  0.64978879