   12   12    1    1
  0.5144862E+02  0.4195452E-09  0.4195452E-09  0.3507498E-08  0.5000000E-15
  1.000000000000000E-004
  CAR 
 unknown system                          
     12      3     16
 
  0.0000000E+00  0.0000000E+00  0.0000000E+00  0.1111111E+00
    1       -3.589569   1.000000
    2       -3.416117   1.000000
    3       -3.137914   1.000000
    4       -2.763880   1.000000
    5       -2.303795   1.000000
    6       -1.789100   1.000000
    7       -1.182997   1.000000
    8       -0.525412   0.999954
    9        0.146563   0.000000
   10        0.848263   0.000000
   11        1.438341   0.000000
   12        2.270519   0.000000
   13        2.391774   0.000000
   14        3.615474   0.000000
   15        3.652485   0.000000
   16        4.220398   0.000000
 
  0.3333333E+00  0.0000000E+00  0.0000000E+00  0.4444444E+00
    1       -2.622156   1.000000
    2       -2.450732   1.000000
    3       -2.175836   1.000000
    4       -1.806320   1.000000
    5       -1.351975   1.000000
    6       -0.844940   1.000000
    7       -0.250472   0.508989
    8        0.192139   0.000000
    9        0.355318   0.000000
   10        0.382557   0.000000
   11        0.613677   0.000000
   12        0.854753   0.000000
   13        1.215773   0.000000
   14        1.449493   0.000000
   15        1.830226   0.000000
   16        1.959583   0.000000
 
  0.3333333E+00  0.3333333E+00  0.0000000E+00  0.4444444E+00
    1       -1.668795   1.000000
    2       -1.499619   1.000000
    3       -1.228423   1.000000
    4       -0.864014   1.000000
    5       -0.416216   0.991021
    6        0.081890   0.000001
    7        0.662768   0.000000
    8        0.880687   0.000000
    9        1.038282   0.000000
   10        1.270616   0.000000
   11        1.291692   0.000000
   12        1.389064   0.000000
   13        1.541143   0.000000
   14        1.634873   0.000000
   15        1.764103   0.000000
   16        1.779132   0.000000
