       N       E                     dE             d eps       ncg     rms          rms(c)
DAV:   1    -0.297739913743E+01   -0.29774E+01   -0.20904E+03    96   0.350E+02
DAV:   2    -0.152174342026E+02   -0.12240E+02   -0.10835E+02   128   0.426E+01
DAV:   3    -0.159354490672E+02   -0.71801E+00   -0.70865E+00   128   0.986E+00
DAV:   4    -0.159633213432E+02   -0.27872E-01   -0.27866E-01   160   0.206E+00
DAV:   5    -0.159638392267E+02   -0.51788E-03   -0.51787E-03   136   0.337E-01    0.990E-01
RMM:   6    -0.158471140255E+02    0.11673E+00   -0.13714E-02   104   0.283E-01    0.665E-01
RMM:   7    -0.157255262981E+02    0.12159E+00   -0.98407E-02   129   0.674E-01    0.218E-01
RMM:   8    -0.157127999201E+02    0.12726E-01   -0.12510E-02   105   0.375E-01    0.121E-01
RMM:   9    -0.157068336849E+02    0.59662E-02   -0.38715E-03   109   0.201E-01    0.130E-01
RMM:  10    -0.156925767884E+02    0.14257E-01   -0.88183E-03   129   0.251E-01    0.730E-02
RMM:  11    -0.156885384409E+02    0.40383E-02   -0.27590E-03   120   0.144E-01    0.646E-02
RMM:  12    -0.156931485075E+02   -0.46101E-02   -0.10290E-02   138   0.197E-01    0.350E-02
RMM:  13    -0.156951564905E+02   -0.20080E-02   -0.76593E-04   115   0.901E-02    0.166E-02
RMM:  14    -0.156964833679E+02   -0.13269E-02   -0.45710E-04   112   0.692E-02    0.476E-03
RMM:  15    -0.156965879149E+02   -0.10455E-03   -0.79526E-05   120   0.379E-02    0.212E-03
RMM:  16    -0.156966044000E+02   -0.16485E-04   -0.20497E-05   121   0.190E-02    0.116E-03
RMM:  17    -0.156966047931E+02   -0.39309E-06   -0.49253E-06   132   0.806E-03    0.610E-04
RMM:  18    -0.156966047504E+02    0.42762E-07   -0.89587E-07   117   0.348E-03    0.194E-04
RMM:  19    -0.156966047470E+02    0.33806E-08   -0.25448E-07   126   0.194E-03    0.827E-05
RMM:  20    -0.156966047506E+02   -0.35933E-08   -0.29085E-08    97   0.730E-04
   1 F= -.15696605E+02 E0= -.15683306E+02  d E =-.265967E-01
