 276 276   0   0
  0.2731209E+02  0.3161397E-08  0.2573375E-08  0.3035038E-08  0.5000000E-15
  1.000000000000000E-004
  CAR 
 unknown system                          
      6.37800480    -16.00598849  301      1.69838978      1.00000000
    -16.006  0.0000E+00  0.0000E+00
    -15.931  0.0000E+00  0.0000E+00
    -15.857  0.0000E+00  0.0000E+00
    -15.782  0.0000E+00  0.0000E+00
    -15.708  0.0000E+00  0.0000E+00
    -15.633  0.0000E+00  0.0000E+00
    -15.558  0.0000E+00  0.0000E+00
    -15.484  0.0000E+00  0.0000E+00
    -15.409  0.0000E+00  0.0000E+00
    -15.334  0.0000E+00  0.0000E+00
    -15.260  0.0000E+00  0.0000E+00
    -15.185  0.0000E+00  0.0000E+00
    -15.111  0.0000E+00  0.0000E+00
    -15.036  0.1455E-12  0.1085E-13
    -14.961  0.4837E-01  0.3609E-02
    -14.887  0.1711E+00  0.1664E-01
    -14.812  0.4289E+00  0.4901E-01
    -14.738  0.3902E+00  0.7835E-01
    -14.663  0.1909E+00  0.9279E-01
    -14.588  0.2078E+00  0.1083E+00
    -14.514  0.2208E+00  0.1250E+00
    -14.439  0.7064E-01  0.1303E+00
    -14.364  0.2328E+00  0.1477E+00
    -14.290  0.2557E+00  0.1670E+00
    -14.215  0.1077E+00  0.1750E+00
    -14.141  0.3351E-01  0.1775E+00
    -14.066  0.2523E-03  0.1775E+00
    -13.991  0.3325E-01  0.1800E+00
    -13.917  0.0000E+00  0.1800E+00
    -13.842  0.0000E+00  0.1800E+00
    -13.768  0.0000E+00  0.1800E+00
    -13.693  0.0000E+00  0.1800E+00
    -13.618  0.0000E+00  0.1800E+00
    -13.544  0.0000E+00  0.1800E+00
    -13.469  0.0000E+00  0.1800E+00
    -13.395  0.0000E+00  0.1800E+00
    -13.320  0.0000E+00  0.1800E+00
    -13.245  0.0000E+00  0.1800E+00
    -13.171  0.0000E+00  0.1800E+00
    -13.096  0.0000E+00  0.1800E+00
    -13.021  0.0000E+00  0.1800E+00
    -12.947  0.0000E+00  0.1800E+00
    -12.872  0.0000E+00  0.1800E+00
    -12.798  0.0000E+00  0.1800E+00
    -12.723  0.0000E+00  0.1800E+00
    -12.648  0.0000E+00  0.1800E+00
    -12.574  0.0000E+00  0.1800E+00
    -12.499  0.0000E+00  0.1800E+00
    -12.425  0.0000E+00  0.1800E+00
    -12.350  0.0000E+00  0.1800E+00
    -12.275  0.0000E+00  0.1800E+00
    -12.201  0.0000E+00  0.1800E+00
    -12.126  0.0000E+00  0.1800E+00
    -12.051  0.0000E+00  0.1800E+00
    -11.977  0.0000E+00  0.1800E+00
    -11.902  0.0000E+00  0.1800E+00
    -11.828  0.0000E+00  0.1800E+00
    -11.753  0.0000E+00  0.1800E+00
    -11.678  0.0000E+00  0.1800E+00
    -11.604  0.0000E+00  0.1800E+00
    -11.529  0.0000E+00  0.1800E+00
    -11.455  0.0000E+00  0.1800E+00
    -11.380  0.0000E+00  0.1800E+00
    -11.305  0.0000E+00  0.1800E+00
    -11.231  0.0000E+00  0.1800E+00
    -11.156  0.0000E+00  0.1800E+00
    -11.082  0.0000E+00  0.1800E+00
    -11.007  0.0000E+00  0.1800E+00
    -10.932  0.0000E+00  0.1800E+00
    -10.858  0.0000E+00  0.1800E+00
    -10.783  0.0000E+00  0.1800E+00
    -10.708  0.0000E+00  0.1800E+00
    -10.634  0.0000E+00  0.1800E+00
    -10.559  0.0000E+00  0.1800E+00
    -10.485  0.0000E+00  0.1800E+00
    -10.410  0.0000E+00  0.1800E+00
    -10.335  0.0000E+00  0.1800E+00
    -10.261  0.0000E+00  0.1800E+00
    -10.186  0.0000E+00  0.1800E+00
    -10.112  0.0000E+00  0.1800E+00
    -10.037  0.0000E+00  0.1800E+00
     -9.962  0.0000E+00  0.1800E+00
     -9.888  0.0000E+00  0.1800E+00
     -9.813  0.0000E+00  0.1800E+00
     -9.738  0.0000E+00  0.1800E+00
     -9.664  0.0000E+00  0.1800E+00
     -9.589  0.0000E+00  0.1800E+00
     -9.515  0.0000E+00  0.1800E+00
     -9.440  0.0000E+00  0.1800E+00
     -9.365  0.0000E+00  0.1800E+00
     -9.291  0.0000E+00  0.1800E+00
     -9.216  0.0000E+00  0.1800E+00
     -9.142  0.0000E+00  0.1800E+00
     -9.067  0.0000E+00  0.1800E+00
     -8.992  0.0000E+00  0.1800E+00
     -8.918  0.0000E+00  0.1800E+00
     -8.843  0.0000E+00  0.1800E+00
     -8.768  0.0000E+00  0.1800E+00
     -8.694  0.0000E+00  0.1800E+00
     -8.619  0.0000E+00  0.1800E+00
     -8.545  0.0000E+00  0.1800E+00
     -8.470  0.0000E+00  0.1800E+00
     -8.395  0.0000E+00  0.1800E+00
     -8.321  0.0000E+00  0.1800E+00
     -8.246  0.0000E+00  0.1800E+00
     -8.172  0.0000E+00  0.1800E+00
     -8.097  0.0000E+00  0.1800E+00
     -8.022  0.0000E+00  0.1800E+00
     -7.948  0.0000E+00  0.1800E+00
     -7.873  0.0000E+00  0.1800E+00
     -7.799  0.0000E+00  0.1800E+00
     -7.724  0.0000E+00  0.1800E+00
     -7.649  0.0000E+00  0.1800E+00
     -7.575  0.0000E+00  0.1800E+00
     -7.500  0.0000E+00  0.1800E+00
     -7.425  0.0000E+00  0.1800E+00
     -7.351  0.0000E+00  0.1800E+00
     -7.276  0.0000E+00  0.1800E+00
     -7.202  0.0000E+00  0.1800E+00
     -7.127  0.0000E+00  0.1800E+00
     -7.052  0.0000E+00  0.1800E+00
     -6.978  0.0000E+00  0.1800E+00
     -6.903  0.0000E+00  0.1800E+00
     -6.829  0.0000E+00  0.1800E+00
     -6.754  0.0000E+00  0.1800E+00
     -6.679  0.0000E+00  0.1800E+00
     -6.605  0.0000E+00  0.1800E+00
     -6.530  0.0000E+00  0.1800E+00
     -6.455  0.0000E+00  0.1800E+00
     -6.381  0.0000E+00  0.1800E+00
     -6.306  0.0000E+00  0.1800E+00
     -6.232  0.0000E+00  0.1800E+00
     -6.157  0.0000E+00  0.1800E+00
     -6.082  0.0000E+00  0.1800E+00
     -6.008  0.0000E+00  0.1800E+00
     -5.933  0.0000E+00  0.1800E+00
     -5.859  0.0000E+00  0.1800E+00
     -5.784  0.0000E+00  0.1800E+00
     -5.709  0.0000E+00  0.1800E+00
     -5.635  0.0000E+00  0.1800E+00
     -5.560  0.0000E+00  0.1800E+00
     -5.486  0.0000E+00  0.1800E+00
     -5.411  0.0000E+00  0.1800E+00
     -5.336  0.0000E+00  0.1800E+00
     -5.262  0.0000E+00  0.1800E+00
     -5.187  0.0000E+00  0.1800E+00
     -5.112  0.0000E+00  0.1800E+00
     -5.038  0.0000E+00  0.1800E+00
     -4.963  0.0000E+00  0.1800E+00
     -4.889  0.0000E+00  0.1800E+00
     -4.814  0.0000E+00  0.1800E+00
     -4.739  0.0000E+00  0.1800E+00
     -4.665  0.0000E+00  0.1800E+00
     -4.590  0.0000E+00  0.1800E+00
     -4.516  0.0000E+00  0.1800E+00
     -4.441  0.0000E+00  0.1800E+00
     -4.366  0.0000E+00  0.1800E+00
     -4.292  0.0000E+00  0.1800E+00
     -4.217  0.0000E+00  0.1800E+00
     -4.142  0.0000E+00  0.1800E+00
     -4.068  0.0000E+00  0.1800E+00
     -3.993  0.0000E+00  0.1800E+00
     -3.919  0.0000E+00  0.1800E+00
     -3.844  0.6657E-04  0.1800E+00
     -3.769  0.3657E-01  0.1827E+00
     -3.695  0.1385E+00  0.1931E+00
     -3.620  0.4087E+00  0.2236E+00
     -3.546  0.3463E+00  0.2497E+00
     -3.471  0.3994E+00  0.2798E+00
     -3.396  0.3154E+00  0.3035E+00
     -3.322  0.2540E+00  0.3228E+00
     -3.247  0.3256E+00  0.3473E+00
     -3.172  0.3239E+00  0.3718E+00
     -3.098  0.3435E+00  0.3978E+00
     -3.023  0.3538E+00  0.4245E+00
     -2.949  0.2383E+00  0.4427E+00
     -2.874  0.7262E-01  0.4482E+00
     -2.799  0.2352E-01  0.4500E+00
     -2.725  0.0000E+00  0.4500E+00
     -2.650  0.0000E+00  0.4500E+00
     -2.576  0.0000E+00  0.4500E+00
     -2.501  0.0000E+00  0.4500E+00
     -2.426  0.0000E+00  0.4500E+00
     -2.352  0.0000E+00  0.4500E+00
     -2.277  0.0000E+00  0.4500E+00
     -2.203  0.0000E+00  0.4500E+00
     -2.128  0.0000E+00  0.4500E+00
     -2.053  0.0000E+00  0.4500E+00
     -1.979  0.0000E+00  0.4500E+00
     -1.904  0.0000E+00  0.4500E+00
     -1.829  0.0000E+00  0.4500E+00
     -1.755  0.0000E+00  0.4500E+00
     -1.680  0.0000E+00  0.4500E+00
     -1.606  0.0000E+00  0.4500E+00
     -1.531  0.0000E+00  0.4500E+00
     -1.456  0.4947E-02  0.4504E+00
     -1.382  0.1659E-01  0.4516E+00
     -1.307  0.3491E-02  0.4519E+00
     -1.233  0.1653E-05  0.4519E+00
     -1.158  0.1996E-01  0.4534E+00
     -1.083  0.3862E-01  0.4563E+00
     -1.009  0.3185E-01  0.4587E+00
     -0.934  0.1969E-01  0.4602E+00
     -0.859  0.1078E+00  0.4683E+00
     -0.785  0.1053E+00  0.4762E+00
     -0.710  0.1770E+00  0.4897E+00
     -0.636  0.3118E+00  0.5130E+00
     -0.561  0.2880E+00  0.5346E+00
     -0.486  0.3104E+00  0.5580E+00
     -0.412  0.3981E+00  0.5879E+00
     -0.337  0.4539E+00  0.6223E+00
     -0.263  0.4393E+00  0.6554E+00
     -0.188  0.2816E+00  0.6767E+00
     -0.113  0.3483E+00  0.7029E+00
     -0.039  0.3994E+00  0.7330E+00
      0.036  0.1875E+00  0.7473E+00
      0.110  0.9228E-01  0.7543E+00
      0.185  0.7602E-01  0.7601E+00
      0.260  0.5065E-01  0.7639E+00
      0.334  0.4013E-01  0.7669E+00
      0.409  0.5965E-01  0.7714E+00
      0.484  0.5265E-01  0.7753E+00
      0.558  0.4298E-01  0.7785E+00
      0.633  0.5831E-01  0.7829E+00
      0.707  0.4853E-01  0.7866E+00
      0.782  0.3147E-01  0.7890E+00
      0.857  0.1399E-01  0.7900E+00
      0.931  0.4022E-01  0.7930E+00
      1.006  0.8454E-01  0.7993E+00
      1.080  0.8690E-01  0.8059E+00
      1.155  0.5208E-01  0.8099E+00
      1.230  0.2172E-01  0.8116E+00
      1.304  0.5970E-01  0.8161E+00
      1.379  0.6302E-01  0.8208E+00
      1.454  0.2747E-01  0.8229E+00
      1.528  0.4107E-01  0.8260E+00
      1.603  0.1139E+00  0.8345E+00
      1.677  0.5780E-01  0.8388E+00
      1.752  0.6165E-01  0.8435E+00
      1.827  0.2829E-01  0.8456E+00
      1.901  0.6889E-01  0.8508E+00
      1.976  0.1287E+00  0.8605E+00
      2.050  0.7692E-01  0.8664E+00
      2.125  0.7116E-01  0.8717E+00
      2.200  0.9404E-01  0.8788E+00
      2.274  0.7201E-01  0.8843E+00
      2.349  0.4263E-01  0.8876E+00
      2.423  0.6485E-01  0.8924E+00
      2.498  0.6690E-01  0.8975E+00
      2.573  0.5960E-01  0.9020E+00
      2.647  0.1227E+00  0.9112E+00
      2.722  0.6081E-01  0.9160E+00
      2.797  0.5895E-01  0.9205E+00
      2.871  0.5445E-01  0.9247E+00
      2.946  0.7981E-01  0.9306E+00
      3.020  0.6210E-01  0.9354E+00
      3.095  0.8893E-01  0.9420E+00
      3.170  0.1046E+00  0.9499E+00
      3.244  0.1144E+00  0.9586E+00
      3.319  0.1093E+00  0.9668E+00
      3.393  0.8010E-01  0.9730E+00
      3.468  0.9457E-01  0.9801E+00
      3.543  0.9943E-01  0.9875E+00
      3.617  0.6768E-01  0.9926E+00
      3.692  0.8406E-01  0.9989E+00
      3.767  0.7101E-01  0.1004E+01
      3.841  0.8399E-01  0.1011E+01
      3.916  0.7396E-01  0.1016E+01
      3.990  0.1065E+00  0.1024E+01
      4.065  0.1482E+00  0.1035E+01
      4.140  0.1108E+00  0.1044E+01
      4.214  0.1025E+00  0.1052E+01
      4.289  0.1093E+00  0.1060E+01
      4.363  0.1885E+00  0.1074E+01
      4.438  0.1499E+00  0.1085E+01
      4.513  0.1095E+00  0.1094E+01
      4.587  0.1310E+00  0.1104E+01
      4.662  0.1351E+00  0.1114E+01
      4.737  0.1645E+00  0.1127E+01
      4.811  0.1524E+00  0.1138E+01
      4.886  0.1318E+00  0.1148E+01
      4.960  0.1018E+00  0.1156E+01
      5.035  0.1237E+00  0.1165E+01
      5.110  0.1253E+00  0.1175E+01
      5.184  0.1247E+00  0.1184E+01
      5.259  0.1122E+00  0.1193E+01
      5.333  0.6483E-01  0.1198E+01
      5.408  0.3153E-01  0.1200E+01
      5.483  0.0000E+00  0.1200E+01
      5.557  0.0000E+00  0.1200E+01
      5.632  0.0000E+00  0.1200E+01
      5.706  0.0000E+00  0.1200E+01
      5.781  0.0000E+00  0.1200E+01
      5.856  0.0000E+00  0.1200E+01
      5.930  0.0000E+00  0.1200E+01
      6.005  0.0000E+00  0.1200E+01
      6.080  0.0000E+00  0.1200E+01
      6.154  0.0000E+00  0.1200E+01
      6.229  0.0000E+00  0.1200E+01
      6.303  0.0000E+00  0.1200E+01
      6.378  0.0000E+00  0.1200E+01
