 running on  120 total cores
 distrk:  each k-point on  120 cores,    1 groups
 distr:  one band on   15 cores,    8 groups
 vasp.6.2.1 16May21 (build Dec 23 2021 00:35:04) complex                        
  
 POSCAR found type information on POSCAR ClNaO 
 POSCAR found :  3 types and     276 ions
 scaLAPACK will be used
 LDA part: xc-table for Pade appr. of Perdew
 -----------------------------------------------------------------------------
|                                                                             |
|           W    W    AA    RRRRR   N    N  II  N    N   GGGG   !!!           |
|           W    W   A  A   R    R  NN   N  II  NN   N  G    G  !!!           |
|           W    W  A    A  R    R  N N  N  II  N N  N  G       !!!           |
|           W WW W  AAAAAA  RRRRR   N  N N  II  N  N N  G  GGG   !            |
|           WW  WW  A    A  R   R   N   NN  II  N   NN  G    G                |
|           W    W  A    A  R    R  N    N  II  N    N   GGGG   !!!           |
|                                                                             |
|     The requested file  could not be found or opened for reading            |
|     k-point information. Automatic k-point generation is used as a          |
|     fallback, which may lead to unwanted results.                           |
|                                                                             |
 -----------------------------------------------------------------------------

 POSCAR, INCAR and KPOINTS ok, starting setup
 FFT: planning ...
 WAVECAR not read
 entering main loop
       N       E                     dE             d eps       ncg     rms          rms(c)
DAV:   1     0.452565230429E+04    0.45257E+04   -0.18018E+05  3968   0.832E+02
DAV:   2     0.441142639128E+03   -0.40845E+04   -0.37901E+04  5544   0.190E+02
DAV:   3    -0.901680853976E+03   -0.13428E+04   -0.13310E+04  5464   0.107E+02
DAV:   4    -0.950272428734E+03   -0.48592E+02   -0.48335E+02  4472   0.244E+01
DAV:   5    -0.951873653369E+03   -0.16012E+01   -0.16004E+01  5384   0.490E+00    0.679E+01
RMM:   6    -0.798831643798E+03    0.15304E+03   -0.52472E+02  3840   0.185E+01    0.775E+01
RMM:   7    -0.847978172078E+03   -0.49147E+02   -0.17981E+02  4256   0.119E+01    0.412E+01
RMM:   8    -0.793470850436E+03    0.54507E+02   -0.28668E+01  4385   0.454E+00    0.265E+01
RMM:   9    -0.779423962308E+03    0.14047E+02   -0.13531E+01  4288   0.280E+00    0.196E+01
RMM:  10    -0.771121719321E+03    0.83022E+01   -0.73892E+00  4267   0.195E+00    0.151E+01
RMM:  11    -0.756890613330E+03    0.14231E+02   -0.16153E+01  4368   0.254E+00    0.839E+00
RMM:  12    -0.752962664876E+03    0.39279E+01   -0.38915E+00  4262   0.135E+00    0.686E+00
RMM:  13    -0.751947860674E+03    0.10148E+01   -0.37900E+00  4142   0.187E+00    0.187E+01
RMM:  14    -0.751680229453E+03    0.26763E+00   -0.12384E+00  4654   0.861E-01    0.205E+01
RMM:  15    -0.750755210707E+03    0.92502E+00   -0.69668E-01  4189   0.679E-01    0.117E+01
RMM:  16    -0.750765525321E+03   -0.10315E-01   -0.69808E-01  4114   0.553E-01    0.407E+00
RMM:  17    -0.750836372590E+03   -0.70847E-01   -0.45548E-01  4207   0.549E-01    0.121E+01
RMM:  18    -0.750794294967E+03    0.42078E-01   -0.22165E-01  4221   0.376E-01    0.113E+01
RMM:  19    -0.750837670419E+03   -0.43375E-01   -0.17465E-01  4352   0.355E-01    0.123E+01
RMM:  20    -0.750722028732E+03    0.11564E+00   -0.20122E-01  4256   0.346E-01    0.379E+00
RMM:  21    -0.750769810313E+03   -0.47782E-01   -0.18956E-01  4497   0.293E-01    0.250E+00
RMM:  22    -0.750748469829E+03    0.21340E-01   -0.48017E-02  4347   0.169E-01    0.233E+00
RMM:  23    -0.750710995480E+03    0.37474E-01   -0.16866E-02  4177   0.103E-01    0.215E+00
RMM:  24    -0.750659688289E+03    0.51307E-01   -0.15600E-02  4310   0.930E-02    0.192E+00
RMM:  25    -0.750638234508E+03    0.21454E-01   -0.41257E-02  5071   0.149E-01    0.188E+00
RMM:  26    -0.750612565810E+03    0.25669E-01   -0.77730E-03  4528   0.629E-02    0.171E+00
RMM:  27    -0.750586274408E+03    0.26291E-01   -0.74176E-03  4411   0.508E-02    0.147E+00
RMM:  28    -0.750579321737E+03    0.69527E-02   -0.26225E-03  4343   0.354E-02    0.139E+00
RMM:  29    -0.750577722391E+03    0.15993E-02   -0.22734E-03  4232   0.324E-02    0.139E+00
RMM:  30    -0.750562160197E+03    0.15562E-01   -0.39683E-03  4481   0.337E-02    0.128E+00
RMM:  31    -0.750558468719E+03    0.36915E-02   -0.45367E-04  4561   0.184E-02    0.114E+00
RMM:  32    -0.750551832214E+03    0.66365E-02   -0.99023E-04  4509   0.208E-02    0.101E+00
RMM:  33    -0.750552860204E+03   -0.10280E-02   -0.63623E-05  4555   0.827E-03    0.105E+00
RMM:  34    -0.750550479824E+03    0.23804E-02   -0.18905E-04  4297   0.842E-03    0.102E+00
RMM:  35    -0.750543825403E+03    0.66544E-02   -0.10118E-03  5245   0.205E-02    0.822E-01
RMM:  36    -0.750542372562E+03    0.14528E-02   -0.11268E-04  4778   0.716E-03    0.767E-01
RMM:  37    -0.750537505848E+03    0.48667E-02   -0.75037E-04  5173   0.169E-02    0.565E-01
RMM:  38    -0.750533576158E+03    0.39297E-02   -0.15656E-03  5391   0.233E-02    0.234E-01
RMM:  39    -0.750533394998E+03    0.18116E-03   -0.14550E-04  4707   0.753E-03    0.179E-01
RMM:  40    -0.750533002618E+03    0.39238E-03   -0.23744E-04  4947   0.969E-03    0.484E-02
RMM:  41    -0.750533053404E+03   -0.50785E-04   -0.28642E-05  4707   0.392E-03    0.842E-02
RMM:  42    -0.750533005516E+03    0.47887E-04   -0.57555E-05  4615   0.477E-03    0.506E-02
RMM:  43    -0.750532991358E+03    0.14158E-04   -0.11295E-05  4231   0.302E-03    0.221E-02
RMM:  44    -0.750532991002E+03    0.35647E-06   -0.38263E-06  4250   0.161E-03    0.202E-02
RMM:  45    -0.750532994174E+03   -0.31722E-05   -0.20716E-06  4262   0.106E-03    0.272E-02
RMM:  46    -0.750532987203E+03    0.69715E-05   -0.16162E-06  3961   0.881E-04    0.813E-03
RMM:  47    -0.750532987493E+03   -0.29051E-06   -0.10381E-06  4092   0.738E-04    0.746E-03
RMM:  48    -0.750532986990E+03    0.50337E-06   -0.22946E-07  3810   0.419E-04    0.378E-03
RMM:  49    -0.750532986959E+03    0.31119E-07   -0.19873E-07  3420   0.291E-04    0.387E-03
RMM:  50    -0.750532986872E+03    0.86948E-07   -0.53290E-08  2946   0.181E-04    0.198E-03
RMM:  51    -0.750532986891E+03   -0.19500E-07   -0.33690E-08  2895   0.147E-04    0.200E-03
RMM:  52    -0.750532986866E+03    0.25357E-07   -0.83257E-09  2408   0.929E-05    0.137E-03
RMM:  53    -0.750532986858E+03    0.75743E-08   -0.54771E-09  2237   0.657E-05
   1 F= -.75053299E+03 E0= -.75052947E+03  d E =-.750533E+03
 curvature:   0.00 expect dE= 0.000E+00 dE for cont linesearch  0.000E+00
 trial: gam= 0.00000 g(F)=  0.843E+00 g(S)=  0.464E+00 ort = 0.000E+00 (trialstep = 0.100E+01)
 search vector abs. value=  0.131E+01
 bond charge predicted
       N       E                     dE             d eps       ncg     rms          rms(c)
DAV:   1    -0.751856289623E+03   -0.13233E+01   -0.83744E+01  4328   0.111E+01    0.716E+00
RMM:   2    -0.755341813374E+03   -0.34855E+01   -0.11304E+01  4024   0.290E+00    0.881E+00
RMM:   3    -0.752382139273E+03    0.29597E+01   -0.15559E+00  3994   0.133E+00    0.516E+00
RMM:   4    -0.752100209817E+03    0.28193E+00   -0.12901E+00  4479   0.834E-01    0.301E+00
RMM:   5    -0.751828758547E+03    0.27145E+00   -0.12324E+00  4204   0.539E-01    0.294E+00
RMM:   6    -0.751784202297E+03    0.44556E-01   -0.17066E-01  4263   0.271E-01    0.159E+00
RMM:   7    -0.751760205864E+03    0.23996E-01   -0.77394E-02  4545   0.172E-01    0.917E-01
RMM:   8    -0.751760133676E+03    0.72188E-04   -0.11984E-01  4231   0.224E-01    0.124E+00
RMM:   9    -0.751750632895E+03    0.95008E-02   -0.33707E-02  4318   0.131E-01    0.113E+00
RMM:  10    -0.751735901342E+03    0.14732E-01   -0.20615E-02  4856   0.873E-02    0.471E-01
RMM:  11    -0.751734267233E+03    0.16341E-02   -0.54695E-03  4423   0.406E-02    0.216E-01
RMM:  12    -0.751733930324E+03    0.33691E-03   -0.58709E-03  4340   0.425E-02    0.149E-01
RMM:  13    -0.751733928598E+03    0.17252E-05   -0.11725E-03  4711   0.221E-02    0.152E-01
RMM:  14    -0.751733715820E+03    0.21278E-03   -0.37148E-04  4587   0.125E-02    0.722E-02
RMM:  15    -0.751733678050E+03    0.37770E-04   -0.24999E-04  4335   0.897E-03    0.326E-02
RMM:  16    -0.751733672728E+03    0.53218E-05   -0.53450E-05  4524   0.501E-03    0.181E-02
RMM:  17    -0.751733671217E+03    0.15109E-05   -0.13740E-05  3954   0.337E-03    0.135E-02
RMM:  18    -0.751733671525E+03   -0.30793E-06   -0.93957E-06  4501   0.210E-03    0.131E-02
RMM:  19    -0.751733669700E+03    0.18253E-05   -0.24329E-06  4585   0.122E-03    0.890E-03
RMM:  20    -0.751733668973E+03    0.72709E-06   -0.34877E-06  4172   0.111E-03    0.533E-03
RMM:  21    -0.751733668666E+03    0.30723E-06   -0.11924E-06  4245   0.754E-04    0.242E-03
RMM:  22    -0.751733668846E+03   -0.18071E-06   -0.58053E-07  4197   0.494E-04    0.480E-03
RMM:  23    -0.751733668613E+03    0.23291E-06   -0.70908E-07  3937   0.499E-04    0.131E-03
RMM:  24    -0.751733668602E+03    0.11220E-07   -0.48047E-08  3036   0.205E-04    0.422E-04
RMM:  25    -0.751733668592E+03    0.10223E-07   -0.13423E-08  2550   0.114E-04    0.269E-04
RMM:  26    -0.751733668564E+03    0.27845E-07   -0.92478E-09  2492   0.887E-05    0.177E-04
RMM:  27    -0.751733668563E+03    0.15134E-08   -0.43554E-09  2375   0.677E-05
   2 F= -.75173367E+03 E0= -.75173056E+03  d E =-.120068E+01
 ZBRENT: can't locate minimum, use default step
 trial-energy change:   -1.200682  1 .order   -1.201046   -1.307199   -1.094893
 step:   4.0000(harm=  6.1571)  dis= 0.19690  next Energy=  -754.557289 (dE=-0.402E+01)
 bond charge predicted
       N       E                     dE             d eps       ncg     rms          rms(c)
DAV:   1    -0.754848339227E+03   -0.31147E+01   -0.74778E+02  4160   0.332E+01    0.224E+01
RMM:   2    -0.776250994412E+03   -0.21403E+02   -0.12428E+02  4231   0.980E+00    0.194E+01
RMM:   3    -0.761129600595E+03    0.15121E+02   -0.11249E+01  4005   0.388E+00    0.139E+01
RMM:   4    -0.757399616628E+03    0.37300E+01   -0.63225E+00  4432   0.233E+00    0.985E+00
RMM:   5    -0.754747512034E+03    0.26521E+01   -0.11345E+01  4424   0.180E+00    0.331E+00
RMM:   6    -0.754287585646E+03    0.45993E+00   -0.51710E-01  4313   0.605E-01    0.264E+00
RMM:   7    -0.754332114287E+03   -0.44529E-01   -0.10130E+00  4435   0.695E-01    0.261E+00
RMM:   8    -0.754193542756E+03    0.13857E+00   -0.17676E-01  4113   0.418E-01    0.252E+00
RMM:   9    -0.754054367475E+03    0.13918E+00   -0.28869E-01  4687   0.340E-01    0.596E-01
RMM:  10    -0.754052728845E+03    0.16386E-02   -0.31496E-02  4475   0.133E-01    0.454E-01
RMM:  11    -0.754051526721E+03    0.12021E-02   -0.71879E-03  4332   0.654E-02    0.420E-01
RMM:  12    -0.754049910225E+03    0.16165E-02   -0.63313E-03  3987   0.665E-02    0.249E-01
RMM:  13    -0.754049531247E+03    0.37898E-03   -0.41677E-03  4691   0.485E-02    0.123E-01
RMM:  14    -0.754049409696E+03    0.12155E-03   -0.16381E-03  4292   0.290E-02    0.865E-02
RMM:  15    -0.754049164712E+03    0.24498E-03   -0.47286E-04  4034   0.194E-02    0.442E-02
RMM:  16    -0.754049160539E+03    0.41733E-05   -0.17333E-04  4630   0.109E-02    0.378E-02
RMM:  17    -0.754049154673E+03    0.58658E-05   -0.19066E-04  4223   0.991E-03    0.257E-02
RMM:  18    -0.754049142701E+03    0.11972E-04   -0.29997E-05  4348   0.448E-03    0.926E-03
RMM:  19    -0.754049142322E+03    0.37890E-06   -0.13053E-05  4458   0.287E-03    0.578E-03
RMM:  20    -0.754049142290E+03    0.31498E-07   -0.44325E-06  4628   0.159E-03    0.460E-03
RMM:  21    -0.754049142011E+03    0.27962E-06   -0.15292E-06  4378   0.107E-03    0.264E-03
RMM:  22    -0.754049141853E+03    0.15796E-06   -0.84596E-07  4382   0.751E-04    0.183E-03
RMM:  23    -0.754049141814E+03    0.38570E-07   -0.24852E-07  3965   0.393E-04    0.107E-03
RMM:  24    -0.754049141807E+03    0.76980E-08   -0.12612E-07  3261   0.279E-04    0.395E-04
RMM:  25    -0.754049141832E+03   -0.25284E-07   -0.65332E-08  3033   0.198E-04    0.376E-04
RMM:  26    -0.754049141843E+03   -0.11423E-07   -0.94073E-09  2522   0.990E-05    0.272E-04
RMM:  27    -0.754049141852E+03   -0.84110E-08   -0.71115E-09  2512   0.836E-05
   3 F= -.75404914E+03 E0= -.75404773E+03  d E =-.351615E+01
 curvature:  -2.54 expect dE=-0.136E+01 dE for cont linesearch -0.403E+00
 ZBRENT: increasing intervall
 opt :  10.0000  next Energy=  -752.943813 (dE=-0.241E+01)
 bond charge predicted
       N       E                     dE             d eps       ncg     rms          rms(c)
DAV:   1    -0.752871685724E+03    0.11775E+01   -0.29106E+03  3920   0.664E+01    0.468E+01
RMM:   2    -0.830151148572E+03   -0.77279E+02   -0.67770E+02  4168   0.198E+01    0.371E+01
RMM:   3    -0.778568812318E+03    0.51582E+02   -0.50488E+01  4115   0.819E+00    0.272E+01
RMM:   4    -0.765492812393E+03    0.13076E+02   -0.27080E+01  4641   0.451E+00    0.191E+01
RMM:   5    -0.755915090689E+03    0.95777E+01   -0.24199E+01  4315   0.350E+00    0.792E+00
RMM:   6    -0.753625045906E+03    0.22900E+01   -0.78172E+00  4384   0.176E+00    0.450E+00
RMM:   7    -0.753223650413E+03    0.40140E+00   -0.21885E+00  4430   0.130E+00    0.349E+00
RMM:   8    -0.752995545502E+03    0.22810E+00   -0.65548E-01  4264   0.822E-01    0.316E+00
RMM:   9    -0.752767072922E+03    0.22847E+00   -0.33559E-01  4653   0.462E-01    0.155E+00
RMM:  10    -0.752733734929E+03    0.33338E-01   -0.29043E-01  4483   0.303E-01    0.548E-01
RMM:  11    -0.752732057181E+03    0.16777E-02   -0.29287E-02  4401   0.119E-01    0.388E-01
RMM:  12    -0.752729475739E+03    0.25814E-02   -0.11763E-02  4095   0.987E-02    0.130E-01
RMM:  13    -0.752729240845E+03    0.23489E-03   -0.41471E-03  4931   0.515E-02    0.920E-02
RMM:  14    -0.752729178015E+03    0.62830E-04   -0.80504E-04  4278   0.248E-02    0.753E-02
RMM:  15    -0.752729149529E+03    0.28486E-04   -0.47648E-04  4313   0.186E-02    0.412E-02
RMM:  16    -0.752729130095E+03    0.19433E-04   -0.28168E-04  4482   0.131E-02    0.167E-02
RMM:  17    -0.752729132907E+03   -0.28116E-05   -0.61307E-05  4512   0.558E-03    0.132E-02
RMM:  18    -0.752729131285E+03    0.16224E-05   -0.14432E-05  4172   0.357E-03    0.630E-03
RMM:  19    -0.752729131644E+03   -0.35989E-06   -0.80041E-06  4454   0.252E-03    0.313E-03
RMM:  20    -0.752729131729E+03   -0.84670E-07   -0.18273E-06  4814   0.107E-03    0.239E-03
RMM:  21    -0.752729131817E+03   -0.88170E-07   -0.55002E-07  4128   0.693E-04    0.152E-03
RMM:  22    -0.752729131842E+03   -0.24891E-07   -0.26540E-07  4242   0.445E-04    0.769E-04
RMM:  23    -0.752729131870E+03   -0.28151E-07   -0.19016E-07  3580   0.320E-04    0.630E-04
RMM:  24    -0.752729131921E+03   -0.50451E-07   -0.30498E-08  2856   0.160E-04    0.531E-04
RMM:  25    -0.752729131952E+03   -0.31170E-07   -0.17918E-08  2707   0.140E-04    0.205E-04
RMM:  26    -0.752729131938E+03    0.13839E-07   -0.87775E-09  2596   0.847E-05    0.581E-05
RMM:  27    -0.752729131931E+03    0.74215E-08   -0.18828E-09  2331   0.467E-05
   4 F= -.75272913E+03 E0= -.75272686E+03  d E =-.219615E+01
 curvature:   6.97 expect dE= 0.236E+02 dE for cont linesearch  0.467E+01
 ZBRENT: bracketing found
 ZBRENT: interpolating
 opt :   5.9636  next Energy=  -754.496183 (dE=-0.396E+01)
 bond charge predicted
       N       E                     dE             d eps       ncg     rms          rms(c)
DAV:   1    -0.754247392269E+03   -0.15183E+01   -0.13744E+03  3848   0.459E+01    0.153E+01
RMM:   2    -0.755111492103E+03   -0.86410E+00   -0.60150E+01  4055   0.953E+00    0.716E+00
RMM:   3    -0.754832333709E+03    0.27916E+00   -0.13908E+01  4352   0.451E+00    0.418E+00
RMM:   4    -0.755109340966E+03   -0.27701E+00   -0.20989E+00  4549   0.174E+00    0.336E+00
RMM:   5    -0.754695730155E+03    0.41361E+00   -0.51990E-01  4379   0.762E-01    0.226E+00
RMM:   6    -0.754530771875E+03    0.16496E+00   -0.21265E-01  4145   0.474E-01    0.141E+00
RMM:   7    -0.754504041148E+03    0.26731E-01   -0.21130E-01  4039   0.451E-01    0.895E-01
RMM:   8    -0.754494592728E+03    0.94484E-02   -0.75892E-02  4938   0.250E-01    0.436E-01
RMM:   9    -0.754491587789E+03    0.30049E-02   -0.10649E-02  4132   0.100E-01    0.243E-01
RMM:  10    -0.754491668903E+03   -0.81113E-04   -0.13866E-02  4104   0.102E-01    0.177E-01
RMM:  11    -0.754491282693E+03    0.38621E-03   -0.36113E-03  4557   0.593E-02    0.118E-01
RMM:  12    -0.754491037732E+03    0.24496E-03   -0.15751E-03  4170   0.354E-02    0.597E-02
RMM:  13    -0.754491008095E+03    0.29636E-04   -0.70253E-04  4385   0.226E-02    0.413E-02
RMM:  14    -0.754491005791E+03    0.23043E-05   -0.45710E-04  4298   0.200E-02    0.248E-02
RMM:  15    -0.754491006711E+03   -0.91952E-06   -0.61250E-05  4354   0.725E-03    0.238E-02
RMM:  16    -0.754490999373E+03    0.73380E-05   -0.40483E-05  3926   0.592E-03    0.116E-02
RMM:  17    -0.754491001741E+03   -0.23680E-05   -0.36714E-05  4276   0.499E-03    0.108E-02
RMM:  18    -0.754491001394E+03    0.34690E-06   -0.13008E-05  4602   0.332E-03    0.691E-03
RMM:  19    -0.754491000838E+03    0.55596E-06   -0.13986E-05  3990   0.290E-03    0.459E-03
RMM:  20    -0.754491000370E+03    0.46743E-06   -0.30778E-06  4142   0.155E-03    0.475E-03
RMM:  21    -0.754491000112E+03    0.25886E-06   -0.14215E-06  3932   0.113E-03    0.157E-03
RMM:  22    -0.754491000209E+03   -0.97811E-07   -0.55552E-07  4256   0.608E-04    0.485E-04
RMM:  23    -0.754491000331E+03   -0.12209E-06   -0.99387E-08  3574   0.271E-04    0.529E-04
RMM:  24    -0.754491000329E+03    0.19500E-08   -0.13371E-08  2554   0.131E-04
   5 F= -.75449100E+03 E0= -.75448843E+03  d E =-.395801E+01
 curvature:  -0.67 expect dE=-0.572E+00 dE for cont linesearch -0.215E-02
 trial: gam= 0.60598 g(F)=  0.686E+00 g(S)=  0.171E+00 ort = 0.648E-01 (trialstep = 0.184E+01)
 search vector abs. value=  0.142E+01
 bond charge predicted
       N       E                     dE             d eps       ncg     rms          rms(c)
DAV:   1    -0.755034370456E+03   -0.54337E+00   -0.26993E+02  4024   0.199E+01    0.679E+00
RMM:   2    -0.755721519838E+03   -0.68715E+00   -0.11006E+01  4093   0.461E+00    0.209E+00
RMM:   3    -0.755996707880E+03   -0.27519E+00   -0.31739E+00  4699   0.219E+00    0.284E+00
RMM:   4    -0.755930765615E+03    0.65942E-01   -0.36938E-01  4481   0.719E-01    0.230E+00
RMM:   5    -0.755890885577E+03    0.39880E-01   -0.55615E-02  4251   0.282E-01    0.183E+00
RMM:   6    -0.755861180327E+03    0.29705E-01   -0.13564E-01  4109   0.335E-01    0.919E-01
RMM:   7    -0.755861439255E+03   -0.25893E-03   -0.13785E-01  4377   0.325E-01    0.653E-01
RMM:   8    -0.755851661396E+03    0.97779E-02   -0.17725E-02  4030   0.140E-01    0.372E-01
RMM:   9    -0.755849150818E+03    0.25106E-02   -0.22024E-02  4390   0.121E-01    0.123E-01
RMM:  10    -0.755849299180E+03   -0.14836E-03   -0.51881E-03  4555   0.745E-02    0.776E-02
RMM:  11    -0.755849173584E+03    0.12560E-03   -0.45825E-04  4268   0.248E-02    0.465E-02
RMM:  12    -0.755849162604E+03    0.10979E-04   -0.31881E-04  4020   0.176E-02    0.258E-02
RMM:  13    -0.755849153733E+03    0.88715E-05   -0.12831E-04  4831   0.106E-02    0.232E-02
RMM:  14    -0.755849142834E+03    0.10899E-04   -0.14307E-04  4023   0.106E-02    0.161E-02
RMM:  15    -0.755849148469E+03   -0.56354E-05   -0.44796E-05  4736   0.677E-03    0.158E-02
RMM:  16    -0.755849140287E+03    0.81826E-05   -0.20915E-05  3902   0.437E-03    0.536E-03
RMM:  17    -0.755849140258E+03    0.28776E-07   -0.90730E-06  4714   0.272E-03    0.261E-03
RMM:  18    -0.755849140057E+03    0.20078E-06   -0.57600E-07  4155   0.861E-04    0.114E-03
RMM:  19    -0.755849139910E+03    0.14683E-06   -0.18459E-07  4159   0.434E-04    0.637E-04
RMM:  20    -0.755849139900E+03    0.10645E-07   -0.82721E-08  3618   0.284E-04    0.680E-04
RMM:  21    -0.755849140022E+03   -0.12227E-06   -0.16965E-08  2585   0.148E-04    0.467E-04
RMM:  22    -0.755849140098E+03   -0.76274E-07   -0.26447E-08  2799   0.142E-04    0.196E-04
RMM:  23    -0.755849140118E+03   -0.19703E-07   -0.20201E-08  2727   0.134E-04    0.117E-04
RMM:  24    -0.755849140098E+03    0.19849E-07   -0.34509E-09  2460   0.776E-05    0.732E-05
RMM:  25    -0.755849140086E+03    0.12347E-07   -0.21527E-09  2190   0.459E-05    0.346E-05
RMM:  26    -0.755849140092E+03   -0.64247E-08   -0.41150E-10  1519   0.291E-05
   6 F= -.75584914E+03 E0= -.75584710E+03  d E =-.135814E+01
 trial-energy change:   -1.358140  1 .order   -1.356367   -1.649272   -1.063461
 step:   5.1807(harm=  5.1807)  dis= 0.23990  next Energy=  -756.812652 (dE=-0.232E+01)
 bond charge predicted
       N       E                     dE             d eps       ncg     rms          rms(c)
DAV:   1    -0.753382853010E+03    0.24663E+01   -0.87960E+02  3872   0.361E+01    0.126E+01
RMM:   2    -0.756249615234E+03   -0.28668E+01   -0.40894E+01  4071   0.871E+00    0.418E+00
RMM:   3    -0.757119448169E+03   -0.86983E+00   -0.10489E+01  4654   0.413E+00    0.494E+00
RMM:   4    -0.757019867285E+03    0.99581E-01   -0.14129E+00  4557   0.143E+00    0.425E+00
RMM:   5    -0.756741612722E+03    0.27825E+00   -0.22635E-01  4056   0.605E-01    0.294E+00
RMM:   6    -0.756667070903E+03    0.74542E-01   -0.77373E-01  4397   0.775E-01    0.127E+00
RMM:   7    -0.756653452709E+03    0.13618E-01   -0.15128E-01  4381   0.421E-01    0.955E-01
RMM:   8    -0.756632129527E+03    0.21323E-01   -0.56990E-02  4105   0.242E-01    0.426E-01
RMM:   9    -0.756630351436E+03    0.17781E-02   -0.23457E-02  4365   0.158E-01    0.246E-01
RMM:  10    -0.756630450806E+03   -0.99371E-04   -0.14870E-02  4631   0.110E-01    0.116E-01
RMM:  11    -0.756630417237E+03    0.33569E-04   -0.17962E-03  4554   0.504E-02    0.106E-01
RMM:  12    -0.756630129477E+03    0.28776E-03   -0.72203E-04  4039   0.274E-02    0.472E-02
RMM:  13    -0.756630139591E+03   -0.10114E-04   -0.83410E-04  4078   0.258E-02    0.251E-02
RMM:  14    -0.756630113977E+03    0.25614E-04   -0.78352E-05  4026   0.118E-02    0.167E-02
RMM:  15    -0.756630113199E+03    0.77762E-06   -0.36205E-05  4153   0.695E-03    0.123E-02
RMM:  16    -0.756630117266E+03   -0.40667E-05   -0.23075E-05  4192   0.465E-03    0.889E-03
RMM:  17    -0.756630115914E+03    0.13525E-05   -0.39378E-06  4397   0.204E-03    0.554E-03
RMM:  18    -0.756630115168E+03    0.74546E-06   -0.72723E-06  3990   0.235E-03    0.190E-03
RMM:  19    -0.756630115489E+03   -0.32120E-06   -0.22424E-06  4659   0.133E-03    0.333E-03
RMM:  20    -0.756630115198E+03    0.29154E-06   -0.49144E-07  3979   0.694E-04    0.178E-03
RMM:  21    -0.756630115109E+03    0.88832E-07   -0.12065E-06  3981   0.949E-04    0.108E-03
RMM:  22    -0.756630115116E+03   -0.68394E-08   -0.98560E-08  3549   0.416E-04
   7 F= -.75663012E+03 E0= -.75662819E+03  d E =-.213911E+01
 curvature:  -4.09 expect dE=-0.567E+01 dE for cont linesearch -0.953E-01
 ZBRENT: interpolating
 opt :   4.3819  next Energy=  -756.702654 (dE=-0.221E+01)
 bond charge predicted
       N       E                     dE             d eps       ncg     rms          rms(c)
DAV:   1    -0.756542182474E+03    0.87933E-01   -0.51675E+01  4096   0.897E+00    0.327E+00
RMM:   2    -0.756652727688E+03   -0.11055E+00   -0.21344E+00  4116   0.201E+00    0.851E-01
RMM:   3    -0.756703604003E+03   -0.50876E-01   -0.61598E-01  4726   0.950E-01    0.133E+00
RMM:   4    -0.756693718563E+03    0.98854E-02   -0.69352E-02  4413   0.313E-01    0.105E+00
RMM:   5    -0.756687945106E+03    0.57735E-02   -0.89842E-03  4303   0.118E-01    0.884E-01
RMM:   6    -0.756681475464E+03    0.64696E-02   -0.28970E-02  4121   0.155E-01    0.431E-01
RMM:   7    -0.756681663376E+03   -0.18791E-03   -0.23531E-02  4455   0.134E-01    0.264E-01
RMM:   8    -0.756680436220E+03    0.12272E-02   -0.22971E-03  4237   0.533E-02    0.219E-01
RMM:   9    -0.756679372236E+03    0.10640E-02   -0.46597E-03  4239   0.561E-02    0.643E-02
RMM:  10    -0.756679437613E+03   -0.65377E-04   -0.20558E-03  4154   0.445E-02    0.499E-02
RMM:  11    -0.756679386836E+03    0.50777E-04   -0.25335E-04  3893   0.186E-02    0.208E-02
RMM:  12    -0.756679416190E+03   -0.29355E-04   -0.22475E-04  3911   0.155E-02    0.284E-02
RMM:  13    -0.756679398828E+03    0.17362E-04   -0.34182E-05  4023   0.694E-03    0.126E-02
RMM:  14    -0.756679398533E+03    0.29521E-06   -0.75753E-05  4163   0.766E-03    0.128E-02
RMM:  15    -0.756679397116E+03    0.14172E-05   -0.83321E-06  4219   0.350E-03    0.608E-03
RMM:  16    -0.756679396862E+03    0.25366E-06   -0.38939E-06  4243   0.203E-03    0.259E-03
RMM:  17    -0.756679396913E+03   -0.50924E-07   -0.13476E-06  4560   0.111E-03    0.131E-03
RMM:  18    -0.756679397068E+03   -0.15559E-06   -0.44073E-07  4336   0.578E-04    0.804E-04
RMM:  19    -0.756679397282E+03   -0.21311E-06   -0.17179E-07  3773   0.370E-04    0.889E-04
RMM:  20    -0.756679397157E+03    0.12459E-06   -0.18874E-07  3740   0.406E-04    0.561E-04
RMM:  21    -0.756679397155E+03    0.15352E-08   -0.19760E-08  2651   0.180E-04
   8 F= -.75667940E+03 E0= -.75667795E+03  d E =-.218840E+01
 curvature:  -3.11 expect dE=-0.255E+01 dE for cont linesearch -0.468E-02
 trial: gam= 0.81414 g(F)=  0.588E+00 g(S)=  0.232E+00 ort = 0.461E-01 (trialstep = 0.181E+01)
 search vector abs. value=  0.183E+01
 bond charge predicted
       N       E                     dE             d eps       ncg     rms          rms(c)
DAV:   1    -0.757369386929E+03   -0.68999E+00   -0.28219E+02  3864   0.202E+01    0.881E+00
RMM:   2    -0.757936508563E+03   -0.56712E+00   -0.14379E+01  4091   0.512E+00    0.250E+00
RMM:   3    -0.758385969681E+03   -0.44946E+00   -0.40845E+00  4649   0.241E+00    0.348E+00
RMM:   4    -0.758155554565E+03    0.23042E+00   -0.54590E-01  4432   0.828E-01    0.283E+00
RMM:   5    -0.758080388704E+03    0.75166E-01   -0.62519E-02  4276   0.318E-01    0.230E+00
RMM:   6    -0.758043451110E+03    0.36938E-01   -0.10336E-01  3986   0.309E-01    0.143E+00
RMM:   7    -0.758039025517E+03    0.44256E-02   -0.18661E-01  4531   0.349E-01    0.552E-01
RMM:   8    -0.758035794395E+03    0.32311E-02   -0.13855E-02  4146   0.136E-01    0.398E-01
RMM:   9    -0.758032054058E+03    0.37403E-02   -0.11453E-02  4009   0.975E-02    0.158E-01
RMM:  10    -0.758032089037E+03   -0.34980E-04   -0.93454E-03  4440   0.865E-02    0.942E-02
RMM:  11    -0.758031959368E+03    0.12967E-03   -0.78758E-04  4452   0.328E-02    0.701E-02
RMM:  12    -0.758031922490E+03    0.36878E-04   -0.59983E-04  3949   0.240E-02    0.323E-02
RMM:  13    -0.758031937766E+03   -0.15276E-04   -0.16880E-04  4521   0.134E-02    0.264E-02
RMM:  14    -0.758031925736E+03    0.12030E-04   -0.12121E-04  3945   0.108E-02    0.131E-02
RMM:  15    -0.758031925927E+03   -0.19151E-06   -0.33694E-05  4586   0.579E-03    0.117E-02
RMM:  16    -0.758031924033E+03    0.18949E-05   -0.45302E-06  4196   0.239E-03    0.825E-03
RMM:  17    -0.758031923944E+03    0.88192E-07   -0.95070E-06  3914   0.282E-03    0.258E-03
RMM:  18    -0.758031924611E+03   -0.66646E-06   -0.29412E-06  4806   0.158E-03    0.193E-03
RMM:  19    -0.758031924730E+03   -0.11899E-06   -0.25263E-07  4014   0.582E-04    0.103E-03
RMM:  20    -0.758031924843E+03   -0.11324E-06   -0.33479E-07  3826   0.530E-04    0.667E-04
RMM:  21    -0.758031924716E+03    0.12739E-06   -0.44642E-08  3274   0.253E-04    0.362E-04
RMM:  22    -0.758031924593E+03    0.12216E-06   -0.15762E-08  2607   0.140E-04    0.243E-04
RMM:  23    -0.758031924535E+03    0.58288E-07   -0.87236E-09  2488   0.990E-05    0.954E-05
RMM:  24    -0.758031924563E+03   -0.27852E-07   -0.26240E-09  2423   0.643E-05    0.617E-05
RMM:  25    -0.758031924582E+03   -0.19420E-07   -0.93853E-10  2091   0.397E-05    0.225E-05
RMM:  26    -0.758031924581E+03    0.16589E-08   -0.29625E-10  1504   0.293E-05
   9 F= -.75803192E+03 E0= -.75803029E+03  d E =-.135253E+01
 trial-energy change:   -1.352527  1 .order   -1.347977   -1.555044   -1.140910
 step:   5.9235(harm=  6.8087)  dis= 0.19716  next Energy=  -759.378007 (dE=-0.270E+01)
 bond charge predicted
       N       E                     dE             d eps       ncg     rms          rms(c)
DAV:   1    -0.755015765176E+03    0.30162E+01   -0.14460E+03  3872   0.460E+01    0.244E+01
RMM:   2    -0.758452195195E+03   -0.34364E+01   -0.88803E+01  4045   0.121E+01    0.595E+00
RMM:   3    -0.760650065813E+03   -0.21979E+01   -0.22599E+01  4597   0.578E+00    0.866E+00
RMM:   4    -0.759744817698E+03    0.90525E+00   -0.32801E+00  4523   0.206E+00    0.778E+00
RMM:   5    -0.759254973054E+03    0.48984E+00   -0.40938E-01  4214   0.836E-01    0.615E+00
RMM:   6    -0.759022579251E+03    0.23239E+00   -0.11721E+00  4155   0.973E-01    0.311E+00
RMM:   7    -0.758999356442E+03    0.23223E-01   -0.26499E-01  4542   0.495E-01    0.189E+00
RMM:   8    -0.759009695542E+03   -0.10339E-01   -0.10572E-01  4026   0.314E-01    0.689E-01
RMM:   9    -0.758994598334E+03    0.15097E-01   -0.27015E-02  4436   0.162E-01    0.554E-01
RMM:  10    -0.758985523713E+03    0.90746E-02   -0.24914E-02  3918   0.148E-01    0.174E-01
RMM:  11    -0.758986308949E+03   -0.78524E-03   -0.15181E-02  4610   0.111E-01    0.201E-01
RMM:  12    -0.758985856254E+03    0.45270E-03   -0.45630E-03  3875   0.640E-02    0.581E-02
RMM:  13    -0.758985934780E+03   -0.78526E-04   -0.10591E-03  4236   0.351E-02    0.651E-02
RMM:  14    -0.758985822923E+03    0.11186E-03   -0.27544E-04  4161   0.173E-02    0.247E-02
RMM:  15    -0.758985827477E+03   -0.45545E-05   -0.27748E-04  4038   0.155E-02    0.231E-02
RMM:  16    -0.758985831454E+03   -0.39765E-05   -0.75836E-05  5055   0.796E-03    0.292E-02
RMM:  17    -0.758985820737E+03    0.10717E-04   -0.31787E-05  3967   0.525E-03    0.134E-02
RMM:  18    -0.758985821551E+03   -0.81427E-06   -0.32067E-05  4036   0.492E-03    0.214E-03
RMM:  19    -0.758985822003E+03   -0.45195E-06   -0.54870E-06  4939   0.215E-03    0.312E-03
RMM:  20    -0.758985821813E+03    0.19029E-06   -0.46242E-07  4032   0.722E-04    0.180E-03
RMM:  21    -0.758985821601E+03    0.21126E-06   -0.99622E-07  3878   0.846E-04    0.103E-03
RMM:  22    -0.758985821579E+03    0.21872E-07   -0.87053E-08  3420   0.355E-04    0.553E-04
RMM:  23    -0.758985821539E+03    0.40884E-07   -0.49501E-08  2959   0.234E-04    0.326E-04
RMM:  24    -0.758985821483E+03    0.55428E-07   -0.78697E-09  2492   0.107E-04    0.108E-04
RMM:  25    -0.758985821443E+03    0.40476E-07   -0.42299E-09  2446   0.740E-05    0.665E-05
RMM:  26    -0.758985821446E+03   -0.35143E-08   -0.21523E-09  2314   0.521E-05
  10 F= -.75898582E+03 E0= -.75898364E+03  d E =-.230642E+01
 curvature:  -7.05 expect dE=-0.121E+02 dE for cont linesearch -0.401E+00
 ZBRENT: interpolating
 opt :   4.5296  next Energy=  -759.210849 (dE=-0.253E+01)
 bond charge predicted
       N       E                     dE             d eps       ncg     rms          rms(c)
DAV:   1    -0.758668112976E+03    0.31771E+00   -0.16737E+02  3864   0.160E+01    0.646E+00
RMM:   2    -0.759007573048E+03   -0.33946E+00   -0.73104E+00  4116   0.378E+00    0.162E+00
RMM:   3    -0.759308011437E+03   -0.30044E+00   -0.23091E+00  4763   0.185E+00    0.278E+00
RMM:   4    -0.759161774429E+03    0.14624E+00   -0.28592E-01  4450   0.609E-01    0.215E+00
RMM:   5    -0.759135555323E+03    0.26219E-01   -0.39805E-02  4208   0.249E-01    0.176E+00
RMM:   6    -0.759114456238E+03    0.21099E-01   -0.89192E-02  4122   0.271E-01    0.955E-01
RMM:   7    -0.759113994814E+03    0.46142E-03   -0.75708E-02  4292   0.230E-01    0.396E-01
RMM:   8    -0.759111555999E+03    0.24388E-02   -0.69185E-03  4232   0.977E-02    0.318E-01
RMM:   9    -0.759109052037E+03    0.25040E-02   -0.12449E-02  4155   0.950E-02    0.982E-02
RMM:  10    -0.759109059170E+03   -0.71326E-05   -0.65245E-03  4206   0.783E-02    0.122E-01
RMM:  11    -0.759108638490E+03    0.42068E-03   -0.10254E-03  3904   0.346E-02    0.530E-02
RMM:  12    -0.759108739416E+03   -0.10093E-03   -0.19653E-03  4061   0.399E-02    0.608E-02
RMM:  13    -0.759108620582E+03    0.11883E-03   -0.24256E-04  3913   0.169E-02    0.251E-02
RMM:  14    -0.759108620696E+03   -0.11404E-06   -0.29950E-04  4130   0.146E-02    0.181E-02
RMM:  15    -0.759108620391E+03    0.30536E-06   -0.43820E-05  4713   0.722E-03    0.129E-02
RMM:  16    -0.759108614947E+03    0.54438E-05   -0.13151E-05  4053   0.353E-03    0.527E-03
RMM:  17    -0.759108614097E+03    0.84951E-06   -0.72031E-06  4481   0.244E-03    0.279E-03
RMM:  18    -0.759108613741E+03    0.35617E-06   -0.10363E-06  4556   0.101E-03    0.201E-03
RMM:  19    -0.759108613400E+03    0.34108E-06   -0.19186E-07  3905   0.473E-04    0.120E-03
RMM:  20    -0.759108613607E+03   -0.20660E-06   -0.24329E-07  3823   0.458E-04    0.522E-04
RMM:  21    -0.759108613776E+03   -0.16985E-06   -0.52156E-08  3189   0.234E-04    0.277E-04
RMM:  22    -0.759108613818E+03   -0.41255E-07   -0.17474E-08  2676   0.138E-04    0.198E-04
RMM:  23    -0.759108613804E+03    0.13402E-07   -0.46789E-09  2484   0.928E-05    0.145E-04
RMM:  24    -0.759108613792E+03    0.12413E-07   -0.19053E-09  2416   0.576E-05    0.703E-05
RMM:  25    -0.759108613785E+03    0.73196E-08   -0.13119E-09  2091   0.407E-05
  11 F= -.75910861E+03 E0= -.75910652E+03  d E =-.242922E+01
 curvature:  -3.96 expect dE=-0.250E+01 dE for cont linesearch -0.305E-01
 trial: gam= 0.59355 g(F)=  0.617E+00 g(S)=  0.152E-01 ort = 0.119E+00 (trialstep = 0.236E+01)
 search vector abs. value=  0.142E+01
 bond charge predicted
       N       E                     dE             d eps       ncg     rms          rms(c)
DAV:   1    -0.759303080963E+03   -0.19447E+00   -0.39090E+02  3856   0.246E+01    0.930E+00
RMM:   2    -0.760258976650E+03   -0.95590E+00   -0.18478E+01  4094   0.582E+00    0.227E+00
RMM:   3    -0.760840135158E+03   -0.58116E+00   -0.47608E+00  4698   0.268E+00    0.368E+00
RMM:   4    -0.760570619545E+03    0.26952E+00   -0.67018E-01  4488   0.923E-01    0.310E+00
RMM:   5    -0.760499096924E+03    0.71523E-01   -0.77134E-02  4240   0.360E-01    0.252E+00
RMM:   6    -0.760452139381E+03    0.46958E-01   -0.13538E-01  4022   0.352E-01    0.151E+00
RMM:   7    -0.760442255229E+03    0.98842E-02   -0.11188E-01  4228   0.292E-01    0.622E-01
RMM:   8    -0.760444281173E+03   -0.20259E-02   -0.26739E-02  4537   0.167E-01    0.345E-01
RMM:   9    -0.760440878002E+03    0.34032E-02   -0.49354E-03  3902   0.742E-02    0.177E-01
RMM:  10    -0.760440301560E+03    0.57644E-03   -0.94353E-03  3933   0.937E-02    0.955E-02
RMM:  11    -0.760440139092E+03    0.16247E-03   -0.85388E-04  3912   0.396E-02    0.491E-02
RMM:  12    -0.760440159999E+03   -0.20906E-04   -0.54457E-04  4027   0.266E-02    0.321E-02
RMM:  13    -0.760440160908E+03   -0.90875E-06   -0.21082E-04  4612   0.144E-02    0.170E-02
RMM:  14    -0.760440162527E+03   -0.16195E-05   -0.40778E-05  4749   0.614E-03    0.122E-02
RMM:  15    -0.760440160984E+03    0.15425E-05   -0.85193E-06  4473   0.273E-03    0.691E-03
RMM:  16    -0.760440161013E+03   -0.28391E-07   -0.40109E-06  4457   0.197E-03    0.405E-03
RMM:  17    -0.760440161309E+03   -0.29641E-06   -0.17957E-06  4348   0.127E-03    0.156E-03
RMM:  18    -0.760440161493E+03   -0.18335E-06   -0.47501E-07  4514   0.673E-04    0.102E-03
RMM:  19    -0.760440161435E+03    0.57378E-07   -0.15631E-07  3825   0.418E-04    0.641E-04
RMM:  20    -0.760440161389E+03    0.46508E-07   -0.40750E-08  3187   0.251E-04    0.337E-04
RMM:  21    -0.760440161309E+03    0.79992E-07   -0.17861E-08  2601   0.151E-04    0.255E-04
RMM:  22    -0.760440161290E+03    0.19143E-07   -0.68436E-09  2502   0.997E-05    0.987E-05
RMM:  23    -0.760440161307E+03   -0.17011E-07   -0.30317E-09  2481   0.667E-05    0.916E-05
RMM:  24    -0.760440161326E+03   -0.19543E-07   -0.12314E-09  2277   0.446E-05    0.314E-05
RMM:  25    -0.760440161326E+03    0.36380E-09   -0.38234E-10  1644   0.312E-05
  12 F= -.76044016E+03 E0= -.76043808E+03  d E =-.133155E+01
 trial-energy change:   -1.331548  1 .order   -1.321306   -1.656686   -0.985926
 step:   5.2347(harm=  5.8204)  dis= 0.17341  next Energy=  -761.060889 (dE=-0.195E+01)
 bond charge predicted
       N       E                     dE             d eps       ncg     rms          rms(c)
DAV:   1    -0.759149019095E+03    0.12911E+01   -0.58369E+02  3848   0.300E+01    0.118E+01
RMM:   2    -0.760640424039E+03   -0.14914E+01   -0.28694E+01  4107   0.722E+00    0.272E+00
RMM:   3    -0.761504009360E+03   -0.86359E+00   -0.73763E+00  4719   0.330E+00    0.464E+00
RMM:   4    -0.761150015755E+03    0.35399E+00   -0.98486E-01  4469   0.112E+00    0.393E+00
RMM:   5    -0.761038530403E+03    0.11149E+00   -0.11808E-01  4195   0.452E-01    0.317E+00
RMM:   6    -0.760966000081E+03    0.72530E-01   -0.22696E-01  4037   0.454E-01    0.186E+00
RMM:   7    -0.760952664003E+03    0.13336E-01   -0.11048E-01  4336   0.304E-01    0.964E-01
RMM:   8    -0.760956189060E+03   -0.35251E-02   -0.65247E-02  4310   0.240E-01    0.420E-01
RMM:   9    -0.760951072410E+03    0.51166E-02   -0.85957E-03  4033   0.981E-02    0.244E-01
RMM:  10    -0.760949813008E+03    0.12594E-02   -0.16761E-02  3908   0.123E-01    0.127E-01
RMM:  11    -0.760949530748E+03    0.28226E-03   -0.14974E-03  3943   0.522E-02    0.623E-02
RMM:  12    -0.760949564035E+03   -0.33287E-04   -0.86806E-04  4027   0.320E-02    0.351E-02
RMM:  13    -0.760949573869E+03   -0.98339E-05   -0.41042E-04  4355   0.202E-02    0.354E-02
RMM:  14    -0.760949559753E+03    0.14116E-04   -0.76598E-05  4480   0.922E-03    0.200E-02
RMM:  15    -0.760949556533E+03    0.32199E-05   -0.33148E-05  4303   0.497E-03    0.101E-02
RMM:  16    -0.760949556864E+03   -0.33063E-06   -0.14711E-05  4476   0.351E-03    0.518E-03
RMM:  17    -0.760949556542E+03    0.32218E-06   -0.24642E-06  4614   0.162E-03    0.341E-03
RMM:  18    -0.760949556694E+03   -0.15204E-06   -0.78246E-07  4182   0.904E-04    0.213E-03
RMM:  19    -0.760949557264E+03   -0.56998E-06   -0.68270E-07  4288   0.718E-04    0.144E-03
RMM:  20    -0.760949557325E+03   -0.61940E-07   -0.27366E-07  4126   0.496E-04    0.109E-03
RMM:  21    -0.760949556956E+03    0.36987E-06   -0.10310E-07  3576   0.304E-04    0.437E-04
RMM:  22    -0.760949556780E+03    0.17577E-06   -0.60289E-08  3151   0.223E-04    0.314E-04
RMM:  23    -0.760949556858E+03   -0.77940E-07   -0.62784E-09  2490   0.104E-04    0.175E-04
RMM:  24    -0.760949556915E+03   -0.56854E-07   -0.42165E-09  2460   0.708E-05    0.439E-05
RMM:  25    -0.760949556912E+03    0.27212E-08   -0.12746E-09  2145   0.439E-05
  13 F= -.76094956E+03 E0= -.76094709E+03  d E =-.184094E+01
 curvature:  -5.71 expect dE=-0.380E+01 dE for cont linesearch -0.526E-01
 trial: gam= 1.13999 g(F)=  0.556E+00 g(S)=  0.109E+00 ort =-0.114E+00 (trialstep = 0.185E+01)
 search vector abs. value=  0.225E+01
 bond charge predicted
       N       E                     dE             d eps       ncg     rms          rms(c)
DAV:   1    -0.760263383788E+03    0.68617E+00   -0.34580E+02  3920   0.227E+01    0.756E+00
RMM:   2    -0.761435379724E+03   -0.11720E+01   -0.13544E+01  4122   0.512E+00    0.167E+00
RMM:   3    -0.761926889781E+03   -0.49151E+00   -0.36064E+00  4819   0.234E+00    0.344E+00
RMM:   4    -0.761732313452E+03    0.19458E+00   -0.40230E-01  4393   0.745E-01    0.279E+00
RMM:   5    -0.761683170569E+03    0.49143E-01   -0.51447E-02  4278   0.293E-01    0.212E+00
RMM:   6    -0.761652823775E+03    0.30347E-01   -0.34218E-01  4271   0.441E-01    0.573E-01
RMM:   7    -0.761656363574E+03   -0.35398E-02   -0.29723E-02  4493   0.198E-01    0.626E-01
RMM:   8    -0.761647241121E+03    0.91225E-02   -0.16891E-02  4025   0.107E-01    0.314E-01
RMM:   9    -0.761644951024E+03    0.22901E-02   -0.23454E-02  3985   0.122E-01    0.109E-01
RMM:  10    -0.761644745334E+03    0.20569E-03   -0.19975E-03  4367   0.582E-02    0.112E-01
RMM:  11    -0.761644695855E+03    0.49479E-04   -0.39796E-04  4099   0.281E-02    0.535E-02
RMM:  12    -0.761644760551E+03   -0.64696E-04   -0.37288E-04  4649   0.201E-02    0.738E-02
RMM:  13    -0.761644679861E+03    0.80690E-04   -0.11597E-04  4087   0.998E-03    0.377E-02
RMM:  14    -0.761644663041E+03    0.16820E-04   -0.16940E-04  4131   0.104E-02    0.984E-03
RMM:  15    -0.761644664705E+03   -0.16645E-05   -0.25419E-05  4955   0.526E-03    0.628E-03
RMM:  16    -0.761644665016E+03   -0.31112E-06   -0.37932E-06  4054   0.206E-03    0.684E-03
RMM:  17    -0.761644665322E+03   -0.30535E-06   -0.10215E-06  4483   0.112E-03    0.317E-03
RMM:  18    -0.761644665363E+03   -0.41109E-07   -0.20431E-06  4011   0.126E-03    0.202E-03
RMM:  19    -0.761644665313E+03    0.49498E-07   -0.37531E-07  4574   0.646E-04    0.899E-04
RMM:  20    -0.761644665231E+03    0.81993E-07   -0.82224E-08  3550   0.299E-04    0.632E-04
RMM:  21    -0.761644665246E+03   -0.14094E-07   -0.54810E-08  3066   0.209E-04    0.461E-04
RMM:  22    -0.761644665279E+03   -0.33047E-07   -0.80397E-09  2504   0.114E-04    0.117E-04
RMM:  23    -0.761644665288E+03   -0.99026E-08   -0.10698E-08  2591   0.934E-05
  14 F= -.76164467E+03 E0= -.76164210E+03  d E =-.695108E+00
 trial-energy change:   -0.695108  1 .order   -0.675930   -0.990235   -0.361626
 step:   2.6908(harm=  2.9146)  dis= 0.16957  next Energy=  -761.728612 (dE=-0.779E+00)
 bond charge predicted
       N       E                     dE             d eps       ncg     rms          rms(c)
DAV:   1    -0.761444041134E+03    0.20062E+00   -0.71768E+01  4000   0.104E+01    0.334E+00
RMM:   2    -0.761677916205E+03   -0.23388E+00   -0.27763E+00  4140   0.235E+00    0.689E-01
RMM:   3    -0.761788771333E+03   -0.11086E+00   -0.76895E-01  4834   0.108E+00    0.161E+00
RMM:   4    -0.761741195130E+03    0.47576E-01   -0.84033E-02  4365   0.339E-01    0.125E+00
RMM:   5    -0.761733541632E+03    0.76535E-02   -0.98666E-03  4323   0.129E-01    0.979E-01
RMM:   6    -0.761727104981E+03    0.64367E-02   -0.84719E-02  4276   0.217E-01    0.264E-01
RMM:   7    -0.761729836000E+03   -0.27310E-02   -0.11261E-02  4382   0.110E-01    0.450E-01
RMM:   8    -0.761725475521E+03    0.43605E-02   -0.80152E-03  3999   0.667E-02    0.208E-01
RMM:   9    -0.761724637725E+03    0.83780E-03   -0.89883E-03  4114   0.760E-02    0.491E-02
RMM:  10    -0.761724602184E+03    0.35541E-04   -0.59590E-04  4368   0.317E-02    0.588E-02
RMM:  11    -0.761724604232E+03   -0.20482E-05   -0.16141E-04  3961   0.156E-02    0.458E-02
RMM:  12    -0.761724600086E+03    0.41465E-05   -0.18527E-04  4582   0.129E-02    0.286E-02
RMM:  13    -0.761724598342E+03    0.17434E-05   -0.26404E-05  4520   0.533E-03    0.257E-02
RMM:  14    -0.761724587458E+03    0.10885E-04   -0.18356E-05  4012   0.373E-03    0.111E-02
RMM:  15    -0.761724586187E+03    0.12704E-05   -0.11460E-05  4592   0.276E-03    0.524E-03
RMM:  16    -0.761724586146E+03    0.41058E-07   -0.14756E-06  4035   0.137E-03    0.486E-03
RMM:  17    -0.761724586418E+03   -0.27152E-06   -0.45718E-06  4277   0.165E-03    0.246E-03
RMM:  18    -0.761724586353E+03    0.65156E-07   -0.46967E-07  3967   0.853E-04    0.217E-03
RMM:  19    -0.761724586240E+03    0.11231E-06   -0.38836E-07  3949   0.540E-04    0.758E-04
RMM:  20    -0.761724586243E+03   -0.20882E-08   -0.14740E-07  3412   0.331E-04    0.339E-04
RMM:  21    -0.761724586277E+03   -0.34313E-07   -0.19360E-08  2661   0.161E-04    0.184E-04
RMM:  22    -0.761724586282E+03   -0.51659E-08   -0.53125E-09  2465   0.902E-05
  15 F= -.76172459E+03 E0= -.76172198E+03  d E =-.775029E+00
 curvature:  -5.85 expect dE=-0.534E+01 dE for cont linesearch -0.524E-03
 trial: gam= 0.61622 g(F)=  0.894E+00 g(S)=  0.177E-01 ort =-0.142E-01 (trialstep = 0.202E+01)
 search vector abs. value=  0.175E+01
 bond charge predicted
       N       E                     dE             d eps       ncg     rms          rms(c)
DAV:   1    -0.760505099419E+03    0.12195E+01   -0.58890E+02  3872   0.288E+01    0.801E+00
RMM:   2    -0.762532550558E+03   -0.20275E+01   -0.24435E+01  4093   0.644E+00    0.227E+00
RMM:   3    -0.762937006407E+03   -0.40446E+00   -0.49648E+00  4730   0.273E+00    0.334E+00
RMM:   4    -0.762924930319E+03    0.12076E-01   -0.59744E-01  4486   0.884E-01    0.279E+00
RMM:   5    -0.762825127133E+03    0.99803E-01   -0.86659E-02  4121   0.362E-01    0.193E+00
RMM:   6    -0.762782523308E+03    0.42604E-01   -0.26067E-01  4117   0.446E-01    0.653E-01
RMM:   7    -0.762776232207E+03    0.62911E-02   -0.31167E-02  4196   0.213E-01    0.376E-01
RMM:   8    -0.762775061827E+03    0.11704E-02   -0.11280E-02  4078   0.113E-01    0.205E-01
RMM:   9    -0.762774212552E+03    0.84928E-03   -0.50628E-03  4562   0.627E-02    0.200E-01
RMM:  10    -0.762773239123E+03    0.97343E-03   -0.41820E-03  4079   0.567E-02    0.573E-02
RMM:  11    -0.762773487539E+03   -0.24842E-03   -0.23690E-03  4529   0.443E-02    0.104E-01
RMM:  12    -0.762773221738E+03    0.26580E-03   -0.65503E-04  3877   0.240E-02    0.327E-02
RMM:  13    -0.762773247789E+03   -0.26051E-04   -0.71275E-04  3965   0.228E-02    0.308E-02
RMM:  14    -0.762773221554E+03    0.26234E-04   -0.79151E-05  3879   0.987E-03    0.990E-03
RMM:  15    -0.762773224821E+03   -0.32662E-05   -0.68279E-05  3986   0.730E-03    0.134E-02
RMM:  16    -0.762773222247E+03    0.25740E-05   -0.90377E-06  4058   0.323E-03    0.418E-03
RMM:  17    -0.762773223858E+03   -0.16113E-05   -0.15160E-05  3992   0.322E-03    0.734E-03
RMM:  18    -0.762773222794E+03    0.10636E-05   -0.21718E-06  3965   0.149E-03    0.281E-03
RMM:  19    -0.762773222622E+03    0.17243E-06   -0.28667E-06  4049   0.137E-03    0.185E-03
RMM:  20    -0.762773222557E+03    0.65113E-07   -0.37232E-07  3864   0.615E-04    0.487E-04
RMM:  21    -0.762773222607E+03   -0.50037E-07   -0.10308E-07  3448   0.294E-04    0.193E-04
RMM:  22    -0.762773222638E+03   -0.31388E-07   -0.20833E-08  2644   0.144E-04    0.143E-04
RMM:  23    -0.762773222640E+03   -0.17826E-08   -0.11142E-08  2514   0.110E-04
  16 F= -.76277322E+03 E0= -.76277088E+03  d E =-.104864E+01
 trial-energy change:   -1.048636  1 .order   -1.091368   -1.821599   -0.361137
 step:   2.6683(harm=  2.5174)  dis= 0.16962  next Energy=  -762.829941 (dE=-0.111E+01)
 bond charge predicted
       N       E                     dE             d eps       ncg     rms          rms(c)
DAV:   1    -0.762630441614E+03    0.14278E+00   -0.61853E+01  4032   0.943E+00    0.246E+00
RMM:   2    -0.762799780127E+03   -0.16934E+00   -0.21206E+00  4124   0.193E+00    0.574E-01
RMM:   3    -0.762841941297E+03   -0.42161E-01   -0.48676E-01  4770   0.857E-01    0.104E+00
RMM:   4    -0.762837073738E+03    0.48676E-02   -0.56691E-02  4456   0.268E-01    0.840E-01
RMM:   5    -0.762832049811E+03    0.50239E-02   -0.64168E-03  4224   0.983E-02    0.642E-01
RMM:   6    -0.762827979759E+03    0.40701E-02   -0.37872E-02  4193   0.165E-01    0.217E-01
RMM:   7    -0.762828549651E+03   -0.56989E-03   -0.77135E-03  4399   0.907E-02    0.303E-01
RMM:   8    -0.762826534091E+03    0.20156E-02   -0.43569E-03  3960   0.568E-02    0.117E-01
RMM:   9    -0.762826352652E+03    0.18144E-03   -0.29790E-03  4355   0.492E-02    0.358E-02
RMM:  10    -0.762826314374E+03    0.38278E-04   -0.31733E-04  4344   0.220E-02    0.280E-02
RMM:  11    -0.762826310276E+03    0.40978E-05   -0.10811E-04  4441   0.118E-02    0.162E-02
RMM:  12    -0.762826313081E+03   -0.28053E-05   -0.62219E-05  4161   0.764E-03    0.167E-02
RMM:  13    -0.762826303171E+03    0.99109E-05   -0.15831E-05  4149   0.407E-03    0.827E-03
RMM:  14    -0.762826301494E+03    0.16769E-05   -0.16990E-05  3932   0.361E-03    0.283E-03
RMM:  15    -0.762826301680E+03   -0.18636E-06   -0.23162E-06  4519   0.174E-03    0.267E-03
RMM:  16    -0.762826301761E+03   -0.81411E-07   -0.74549E-07  3988   0.997E-04    0.119E-03
RMM:  17    -0.762826301870E+03   -0.10883E-06   -0.35118E-07  4516   0.576E-04    0.789E-04
RMM:  18    -0.762826301893E+03   -0.22432E-07   -0.43033E-08  3098   0.216E-04    0.651E-04
RMM:  19    -0.762826301872E+03    0.20656E-07   -0.31672E-08  2741   0.174E-04    0.133E-04
RMM:  20    -0.762826301851E+03    0.21428E-07   -0.17614E-08  2628   0.126E-04    0.231E-04
RMM:  21    -0.762826301850E+03    0.56752E-09   -0.42629E-09  2468   0.795E-05
  17 F= -.76282630E+03 E0= -.76282404E+03  d E =-.110172E+01
 curvature:  -2.22 expect dE=-0.999E+00 dE for cont linesearch -0.247E-03
 trial: gam= 0.48907 g(F)=  0.395E+00 g(S)=  0.556E-01 ort =-0.140E-01 (trialstep = 0.215E+01)
 search vector abs. value=  0.855E+00
 bond charge predicted
       N       E                     dE             d eps       ncg     rms          rms(c)
DAV:   1    -0.763051634036E+03   -0.22533E+00   -0.20331E+02  3864   0.182E+01    0.677E+00
RMM:   2    -0.763435166361E+03   -0.38353E+00   -0.88901E+00  4095   0.416E+00    0.150E+00
RMM:   3    -0.763625161781E+03   -0.19000E+00   -0.25997E+00  4808   0.195E+00    0.260E+00
RMM:   4    -0.763615435608E+03    0.97262E-02   -0.25463E-01  4344   0.616E-01    0.202E+00
RMM:   5    -0.763599073579E+03    0.16362E-01   -0.35441E-02  4314   0.243E-01    0.166E+00
RMM:   6    -0.763578045355E+03    0.21028E-01   -0.66512E-02  3964   0.248E-01    0.938E-01
RMM:   7    -0.763575889220E+03    0.21561E-02   -0.66130E-02  4215   0.222E-01    0.360E-01
RMM:   8    -0.763576745109E+03   -0.85589E-03   -0.11348E-02  4449   0.112E-01    0.371E-01
RMM:   9    -0.763573070242E+03    0.36749E-02   -0.10343E-02  3872   0.993E-02    0.112E-01
RMM:  10    -0.763573102262E+03   -0.32020E-04   -0.72625E-03  4185   0.830E-02    0.100E-01
RMM:  11    -0.763572871102E+03    0.23116E-03   -0.98047E-04  3855   0.348E-02    0.401E-02
RMM:  12    -0.763572977504E+03   -0.10640E-03   -0.89848E-04  3884   0.319E-02    0.530E-02
RMM:  13    -0.763572892203E+03    0.85301E-04   -0.26993E-04  3870   0.180E-02    0.177E-02
RMM:  14    -0.763572908394E+03   -0.16191E-04   -0.19043E-04  4453   0.135E-02    0.218E-02
RMM:  15    -0.763572901434E+03    0.69598E-05   -0.27106E-05  4316   0.521E-03    0.130E-02
RMM:  16    -0.763572899526E+03    0.19076E-05   -0.13978E-05  4107   0.347E-03    0.567E-03
RMM:  17    -0.763572899854E+03   -0.32732E-06   -0.69941E-06  4551   0.263E-03    0.182E-03
RMM:  18    -0.763572900412E+03   -0.55862E-06   -0.14437E-06  4489   0.105E-03    0.240E-03
RMM:  19    -0.763572900416E+03   -0.41182E-08   -0.44993E-07  3852   0.719E-04    0.103E-03
RMM:  20    -0.763572900278E+03    0.13867E-06   -0.29543E-07  4187   0.491E-04    0.675E-04
RMM:  21    -0.763572900178E+03    0.99317E-07   -0.42093E-08  3046   0.239E-04    0.258E-04
RMM:  22    -0.763572900177E+03    0.12515E-08   -0.32435E-08  2887   0.189E-04
  18 F= -.76357290E+03 E0= -.76357061E+03  d E =-.746598E+00
 trial-energy change:   -0.746598  1 .order   -0.745657   -0.954074   -0.537240
 step:   4.9172(harm=  4.9172)  dis= 0.19364  next Energy=  -763.918173 (dE=-0.109E+01)
 bond charge predicted
       N       E                     dE             d eps       ncg     rms          rms(c)
DAV:   1    -0.762988030737E+03    0.58487E+00   -0.33786E+02  3872   0.235E+01    0.914E+00
RMM:   2    -0.763649977525E+03   -0.66195E+00   -0.15320E+01  4093   0.548E+00    0.199E+00
RMM:   3    -0.763977336314E+03   -0.32736E+00   -0.44795E+00  4797   0.257E+00    0.348E+00
RMM:   4    -0.763960653291E+03    0.16683E-01   -0.44774E-01  4370   0.822E-01    0.274E+00
RMM:   5    -0.763930007060E+03    0.30646E-01   -0.59600E-02  4307   0.321E-01    0.226E+00
RMM:   6    -0.763892953780E+03    0.37053E-01   -0.11557E-01  3954   0.329E-01    0.130E+00
RMM:   7    -0.763888161411E+03    0.47924E-02   -0.10702E-01  4300   0.282E-01    0.512E-01
RMM:   8    -0.763890618929E+03   -0.24575E-02   -0.17428E-02  4467   0.140E-01    0.438E-01
RMM:   9    -0.763884850428E+03    0.57685E-02   -0.66104E-03  3857   0.846E-02    0.239E-01
RMM:  10    -0.763883755798E+03    0.10946E-02   -0.14936E-02  4130   0.114E-01    0.104E-01
RMM:  11    -0.763883573235E+03    0.18256E-03   -0.12459E-03  3869   0.445E-02    0.500E-02
RMM:  12    -0.763883728649E+03   -0.15541E-03   -0.11809E-03  3902   0.371E-02    0.634E-02
RMM:  13    -0.763883608258E+03    0.12039E-03   -0.30892E-04  3921   0.201E-02    0.228E-02
RMM:  14    -0.763883629995E+03   -0.21737E-04   -0.33777E-04  4066   0.184E-02    0.275E-02
RMM:  15    -0.763883625651E+03    0.43434E-05   -0.54823E-05  4566   0.818E-03    0.235E-02
RMM:  16    -0.763883617173E+03    0.84777E-05   -0.20967E-05  3968   0.503E-03    0.122E-02
RMM:  17    -0.763883617918E+03   -0.74472E-06   -0.49529E-05  3985   0.630E-03    0.552E-03
RMM:  18    -0.763883617005E+03    0.91358E-06   -0.37859E-06  3891   0.260E-03    0.299E-03
RMM:  19    -0.763883617134E+03   -0.12912E-06   -0.19075E-06  4214   0.163E-03    0.138E-03
RMM:  20    -0.763883617169E+03   -0.35157E-07   -0.32287E-07  4274   0.583E-04    0.121E-03
RMM:  21    -0.763883616905E+03    0.26411E-06   -0.13122E-07  3854   0.343E-04    0.519E-04
RMM:  22    -0.763883616828E+03    0.76783E-07   -0.48282E-08  3033   0.212E-04    0.201E-04
RMM:  23    -0.763883616783E+03    0.44594E-07   -0.21218E-08  2660   0.156E-04    0.131E-04
RMM:  24    -0.763883616784E+03   -0.62573E-09   -0.43338E-09  2478   0.879E-05
  19 F= -.76388362E+03 E0= -.76388102E+03  d E =-.105731E+01
 curvature:  -4.74 expect dE=-0.191E+01 dE for cont linesearch -0.565E-02
 trial: gam= 0.91382 g(F)=  0.383E+00 g(S)=  0.198E-01 ort =-0.320E-01 (trialstep = 0.218E+01)
 search vector abs. value=  0.106E+01
 bond charge predicted
       N       E                     dE             d eps       ncg     rms          rms(c)
DAV:   1    -0.763457885371E+03    0.42573E+00   -0.25908E+02  3848   0.201E+01    0.618E+00
RMM:   2    -0.764346491520E+03   -0.88861E+00   -0.10576E+01  4108   0.450E+00    0.116E+00
RMM:   3    -0.764581566528E+03   -0.23508E+00   -0.27115E+00  4794   0.202E+00    0.275E+00
RMM:   4    -0.764575816024E+03    0.57505E-02   -0.25795E-01  4451   0.617E-01    0.211E+00
RMM:   5    -0.764557647345E+03    0.18169E-01   -0.33071E-02  4300   0.228E-01    0.177E+00
RMM:   6    -0.764530079386E+03    0.27568E-01   -0.81609E-02  3970   0.253E-01    0.903E-01
RMM:   7    -0.764526756096E+03    0.33233E-02   -0.36082E-02  4258   0.178E-01    0.445E-01
RMM:   8    -0.764529722403E+03   -0.29663E-02   -0.21865E-02  4144   0.135E-01    0.348E-01
RMM:   9    -0.764527083738E+03    0.26387E-02   -0.34340E-03  4210   0.572E-02    0.338E-01
RMM:  10    -0.764525121866E+03    0.19619E-02   -0.11068E-02  4214   0.850E-02    0.594E-02
RMM:  11    -0.764525155975E+03   -0.34109E-04   -0.66820E-04  4342   0.326E-02    0.487E-02
RMM:  12    -0.764525150152E+03    0.58237E-05   -0.17242E-04  4307   0.165E-02    0.223E-02
RMM:  13    -0.764525156957E+03   -0.68053E-05   -0.82897E-05  4361   0.997E-03    0.200E-02
RMM:  14    -0.764525154332E+03    0.26253E-05   -0.15591E-05  4681   0.391E-03    0.124E-02
RMM:  15    -0.764525153111E+03    0.12203E-05   -0.10904E-05  4054   0.298E-03    0.601E-03
RMM:  16    -0.764525153483E+03   -0.37143E-06   -0.54469E-06  4691   0.190E-03    0.562E-03
RMM:  17    -0.764525153097E+03    0.38585E-06   -0.15120E-06  4156   0.118E-03    0.429E-03
RMM:  18    -0.764525153159E+03   -0.61620E-07   -0.25926E-06  4003   0.130E-03    0.143E-03
RMM:  19    -0.764525153362E+03   -0.20361E-06   -0.10142E-06  4224   0.886E-04    0.136E-03
RMM:  20    -0.764525153249E+03    0.11323E-06   -0.18588E-07  3733   0.451E-04    0.692E-04
RMM:  21    -0.764525153186E+03    0.62646E-07   -0.85902E-08  3320   0.275E-04    0.271E-04
RMM:  22    -0.764525153180E+03    0.67230E-08   -0.31056E-08  2879   0.175E-04
  20 F= -.76452515E+03 E0= -.76452229E+03  d E =-.641536E+00
 trial-energy change:   -0.641536  1 .order   -0.636643   -0.815941   -0.457344
 step:   4.5599(harm=  4.9665)  dis= 0.19375  next Energy=  -764.780516 (dE=-0.897E+00)
 bond charge predicted
       N       E                     dE             d eps       ncg     rms          rms(c)
DAV:   1    -0.763455744012E+03    0.10694E+01   -0.30822E+02  3848   0.221E+01    0.683E+00
RMM:   2    -0.764519957187E+03   -0.10642E+01   -0.12576E+01  4103   0.497E+00    0.129E+00
RMM:   3    -0.764803454719E+03   -0.28350E+00   -0.32475E+00  4778   0.222E+00    0.302E+00
RMM:   4    -0.764796624693E+03    0.68300E-02   -0.31675E-01  4451   0.689E-01    0.233E+00
RMM:   5    -0.764774870588E+03    0.21754E-01   -0.40520E-02  4292   0.254E-01    0.197E+00
RMM:   6    -0.764740652722E+03    0.34218E-01   -0.10258E-01  3962   0.286E-01    0.999E-01
RMM:   7    -0.764736887259E+03    0.37655E-02   -0.47426E-02  4201   0.205E-01    0.472E-01
RMM:   8    -0.764740652541E+03   -0.37653E-02   -0.25287E-02  4273   0.147E-01    0.374E-01
RMM:   9    -0.764737839116E+03    0.28134E-02   -0.44181E-03  4225   0.626E-02    0.405E-01
RMM:  10    -0.764734871473E+03    0.29676E-02   -0.15924E-02  4300   0.102E-01    0.662E-02
RMM:  11    -0.764734932769E+03   -0.61296E-04   -0.93235E-04  4419   0.374E-02    0.542E-02
RMM:  12    -0.764734908099E+03    0.24670E-04   -0.15879E-04  4207   0.168E-02    0.358E-02
RMM:  13    -0.764734911447E+03   -0.33475E-05   -0.14024E-04  4032   0.124E-02    0.205E-02
RMM:  14    -0.764734906505E+03    0.49419E-05   -0.31266E-05  4583   0.595E-03    0.194E-02
RMM:  15    -0.764734903958E+03    0.25474E-05   -0.21510E-05  4139   0.424E-03    0.113E-02
RMM:  16    -0.764734903859E+03    0.98757E-07   -0.15175E-05  4465   0.311E-03    0.750E-03
RMM:  17    -0.764734903241E+03    0.61761E-06   -0.49829E-06  4402   0.220E-03    0.357E-03
RMM:  18    -0.764734903286E+03   -0.44376E-07   -0.22426E-06  4336   0.120E-03    0.116E-03
RMM:  19    -0.764734903481E+03   -0.19508E-06   -0.69767E-07  4045   0.761E-04    0.124E-03
RMM:  20    -0.764734903311E+03    0.16919E-06   -0.16824E-07  3772   0.409E-04    0.505E-04
RMM:  21    -0.764734903262E+03    0.49185E-07   -0.82345E-08  3355   0.258E-04    0.401E-04
RMM:  22    -0.764734903306E+03   -0.44085E-07   -0.32295E-08  2875   0.180E-04    0.171E-04
RMM:  23    -0.764734903325E+03   -0.18896E-07   -0.18760E-08  2704   0.128E-04    0.269E-04
RMM:  24    -0.764734903298E+03    0.27096E-07   -0.42027E-09  2428   0.822E-05    0.111E-04
RMM:  25    -0.764734903284E+03    0.14647E-07   -0.36608E-09  2345   0.590E-05    0.442E-05
RMM:  26    -0.764734903283E+03    0.85856E-09   -0.75967E-10  1897   0.387E-05
  21 F= -.76473490E+03 E0= -.76473183E+03  d E =-.851286E+00
 curvature:  -6.88 expect dE=-0.276E+01 dE for cont linesearch -0.205E-01
 trial: gam= 0.74838 g(F)=  0.387E+00 g(S)=  0.147E-01 ort =-0.562E-01 (trialstep = 0.266E+01)
 search vector abs. value=  0.910E+00
 bond charge predicted
       N       E                     dE             d eps       ncg     rms          rms(c)
DAV:   1    -0.763931074134E+03    0.80383E+00   -0.32017E+02  3848   0.223E+01    0.777E+00
RMM:   2    -0.765034088320E+03   -0.11030E+01   -0.13106E+01  4131   0.506E+00    0.152E+00
RMM:   3    -0.765385183990E+03   -0.35110E+00   -0.38805E+00  4908   0.235E+00    0.337E+00
RMM:   4    -0.765365039744E+03    0.20144E-01   -0.29180E-01  4356   0.674E-01    0.262E+00
RMM:   5    -0.765336064963E+03    0.28975E-01   -0.41394E-02  4388   0.250E-01    0.211E+00
RMM:   6    -0.765300212517E+03    0.35852E-01   -0.23349E-01  4228   0.366E-01    0.720E-01
RMM:   7    -0.765311926993E+03   -0.11714E-01   -0.80770E-02  4276   0.258E-01    0.763E-01
RMM:   8    -0.765305854366E+03    0.60726E-02   -0.66368E-03  4223   0.870E-02    0.647E-01
RMM:   9    -0.765294878484E+03    0.10976E-01   -0.44811E-02  4322   0.148E-01    0.221E-01
RMM:  10    -0.765294925822E+03   -0.47338E-04   -0.44798E-03  4936   0.705E-02    0.148E-01
RMM:  11    -0.765294874855E+03    0.50968E-04   -0.23658E-04  4095   0.191E-02    0.967E-02
RMM:  12    -0.765294902954E+03   -0.28100E-04   -0.21947E-04  4104   0.155E-02    0.549E-02
RMM:  13    -0.765294906665E+03   -0.37106E-05   -0.99710E-05  4252   0.104E-02    0.594E-02
RMM:  14    -0.765294836953E+03    0.69712E-04   -0.10912E-04  3917   0.961E-03    0.265E-02
RMM:  15    -0.765294827487E+03    0.94657E-05   -0.13442E-04  4580   0.879E-03    0.997E-03
RMM:  16    -0.765294828030E+03   -0.54295E-06   -0.10958E-05  3935   0.400E-03    0.116E-02
RMM:  17    -0.765294827904E+03    0.12579E-06   -0.59596E-06  4411   0.239E-03    0.730E-03
RMM:  18    -0.765294827885E+03    0.18947E-07   -0.65346E-06  4085   0.226E-03    0.240E-03
RMM:  19    -0.765294827900E+03   -0.14858E-07   -0.13920E-06  4414   0.132E-03    0.159E-03
RMM:  20    -0.765294827805E+03    0.95497E-07   -0.23116E-07  3801   0.573E-04    0.431E-04
RMM:  21    -0.765294827848E+03   -0.42826E-07   -0.49723E-08  3223   0.268E-04    0.238E-04
RMM:  22    -0.765294827849E+03   -0.85129E-09   -0.12502E-08  2557   0.134E-04
  22 F= -.76529483E+03 E0= -.76529160E+03  d E =-.559925E+00
 trial-energy change:   -0.559925  1 .order   -0.550435   -0.955293   -0.145578
 step:   3.0998(harm=  3.1360)  dis= 0.13120  next Energy=  -765.306966 (dE=-0.572E+00)
 bond charge predicted
       N       E                     dE             d eps       ncg     rms          rms(c)
DAV:   1    -0.765271317167E+03    0.23511E-01   -0.88936E+00  4160   0.370E+00    0.118E+00
RMM:   2    -0.765299436072E+03   -0.28119E-01   -0.34997E-01  4166   0.833E-01    0.233E-01
RMM:   3    -0.765309269429E+03   -0.98334E-02   -0.10733E-01  4888   0.388E-01    0.562E-01
RMM:   4    -0.765308664219E+03    0.60521E-03   -0.83560E-03  4308   0.113E-01    0.422E-01
RMM:   5    -0.765308031140E+03    0.63308E-03   -0.10966E-03  4453   0.417E-02    0.358E-01
RMM:   6    -0.765306922901E+03    0.11082E-02   -0.30296E-03  3961   0.457E-02    0.188E-01
RMM:   7    -0.765307475975E+03   -0.55307E-03   -0.87956E-03  4378   0.717E-02    0.155E-01
RMM:   8    -0.765307269934E+03    0.20604E-03   -0.31550E-04  4322   0.229E-02    0.148E-01
RMM:   9    -0.765306699402E+03    0.57053E-03   -0.17141E-03  4388   0.285E-02    0.527E-02
RMM:  10    -0.765306681656E+03    0.17746E-04   -0.66166E-04  4467   0.229E-02    0.225E-02
RMM:  11    -0.765306669312E+03    0.12345E-04   -0.62793E-05  3863   0.801E-03    0.180E-02
RMM:  12    -0.765306670130E+03   -0.81823E-06   -0.25893E-05  4270   0.512E-03    0.101E-02
RMM:  13    -0.765306668855E+03    0.12747E-05   -0.13950E-05  4530   0.334E-03    0.760E-03
RMM:  14    -0.765306670347E+03   -0.14920E-05   -0.97441E-06  4112   0.292E-03    0.108E-02
RMM:  15    -0.765306667218E+03    0.31294E-05   -0.31854E-06  4010   0.163E-03    0.452E-03
RMM:  16    -0.765306666623E+03    0.59449E-06   -0.55399E-06  4270   0.176E-03    0.710E-04
RMM:  17    -0.765306666782E+03   -0.15905E-06   -0.38135E-07  3988   0.699E-04    0.131E-03
RMM:  18    -0.765306666778E+03    0.39508E-08   -0.15396E-07  4047   0.389E-04    0.475E-04
RMM:  19    -0.765306666789E+03   -0.10463E-07   -0.70491E-08  3223   0.243E-04    0.918E-04
RMM:  20    -0.765306666803E+03   -0.14479E-07   -0.29876E-08  2920   0.163E-04    0.273E-04
RMM:  21    -0.765306666814E+03   -0.11089E-07   -0.37935E-08  2904   0.149E-04    0.126E-04
RMM:  22    -0.765306666812E+03    0.24520E-08   -0.30983E-09  2256   0.742E-05
  23 F= -.76530667E+03 E0= -.76530344E+03  d E =-.571764E+00
 curvature:  -3.95 expect dE=-0.162E+01 dE for cont linesearch -0.539E-05
 trial: gam= 0.60764 g(F)=  0.404E+00 g(S)=  0.777E-02 ort =-0.111E-02 (trialstep = 0.275E+01)
 search vector abs. value=  0.746E+00
 bond charge predicted
       N       E                     dE             d eps       ncg     rms          rms(c)
DAV:   1    -0.763540918833E+03    0.17657E+01   -0.53178E+02  3896   0.274E+01    0.762E+00
RMM:   2    -0.765526868253E+03   -0.19859E+01   -0.24313E+01  4087   0.615E+00    0.196E+00
RMM:   3    -0.765912094203E+03   -0.38523E+00   -0.50440E+00  4705   0.266E+00    0.337E+00
RMM:   4    -0.765888219654E+03    0.23875E-01   -0.53247E-01  4516   0.841E-01    0.247E+00
RMM:   5    -0.765828681961E+03    0.59538E-01   -0.17014E-01  4011   0.439E-01    0.130E+00
RMM:   6    -0.765809560180E+03    0.19122E-01   -0.10707E-01  4596   0.308E-01    0.771E-01
RMM:   7    -0.765803480493E+03    0.60797E-02   -0.14911E-02  4046   0.135E-01    0.679E-01
RMM:   8    -0.765804272589E+03   -0.79210E-03   -0.13898E-02  3905   0.111E-01    0.353E-01
RMM:   9    -0.765798135848E+03    0.61367E-02   -0.21058E-02  4053   0.121E-01    0.258E-01
RMM:  10    -0.765796770257E+03    0.13656E-02   -0.35239E-03  4128   0.567E-02    0.968E-02
RMM:  11    -0.765796715985E+03    0.54272E-04   -0.14793E-03  4497   0.331E-02    0.576E-02
RMM:  12    -0.765796649500E+03    0.66485E-04   -0.37140E-04  4914   0.174E-02    0.414E-02
RMM:  13    -0.765796639681E+03    0.98189E-05   -0.28405E-04  4003   0.137E-02    0.218E-02
RMM:  14    -0.765796643489E+03   -0.38073E-05   -0.64619E-05  4431   0.630E-03    0.225E-02
RMM:  15    -0.765796633366E+03    0.10123E-04   -0.29099E-05  4063   0.475E-03    0.102E-02
RMM:  16    -0.765796632772E+03    0.59361E-06   -0.16647E-05  4410   0.315E-03    0.485E-03
RMM:  17    -0.765796633033E+03   -0.26108E-06   -0.58395E-06  4148   0.221E-03    0.186E-03
RMM:  18    -0.765796633143E+03   -0.11043E-06   -0.17181E-06  4431   0.127E-03    0.248E-03
RMM:  19    -0.765796632887E+03    0.25697E-06   -0.70441E-07  3916   0.796E-04    0.133E-03
RMM:  20    -0.765796632878E+03    0.85565E-08   -0.50438E-07  4142   0.571E-04    0.696E-04
RMM:  21    -0.765796632920E+03   -0.41997E-07   -0.11271E-07  3351   0.287E-04    0.689E-04
RMM:  22    -0.765796632886E+03    0.33702E-07   -0.26380E-08  2766   0.166E-04    0.361E-04
RMM:  23    -0.765796632870E+03    0.16262E-07   -0.13837E-08  2603   0.114E-04    0.117E-04
RMM:  24    -0.765796632866E+03    0.42128E-08   -0.55442E-09  2464   0.795E-05
  24 F= -.76579663E+03 E0= -.76579304E+03  d E =-.489966E+00
 trial-energy change:   -0.489966  1 .order   -0.549895   -1.127846    0.028057
 step:   2.6512(harm=  2.6798)  dis= 0.08920  next Energy=  -765.797122 (dE=-0.490E+00)
 bond charge predicted
       N       E                     dE             d eps       ncg     rms          rms(c)
DAV:   1    -0.765795039890E+03    0.15930E-02   -0.65738E-01  4256   0.960E-01    0.227E-01
RMM:   2    -0.765796807408E+03   -0.17675E-02   -0.20213E-02  4146   0.185E-01    0.490E-02
RMM:   3    -0.765797171404E+03   -0.36400E-03   -0.45549E-03  4742   0.823E-02    0.103E-01
RMM:   4    -0.765797180847E+03   -0.94431E-05   -0.61164E-04  4476   0.266E-02    0.799E-02
RMM:   5    -0.765797134190E+03    0.46657E-04   -0.74463E-05  4149   0.102E-02    0.531E-02
RMM:   6    -0.765797111175E+03    0.23015E-04   -0.39183E-04  4262   0.159E-02    0.222E-02
RMM:   7    -0.765797116366E+03   -0.51911E-05   -0.66934E-05  4437   0.858E-03    0.378E-02
RMM:   8    -0.765797103898E+03    0.12468E-04   -0.73177E-06  4111   0.279E-03    0.309E-02
RMM:   9    -0.765797085638E+03    0.18259E-04   -0.93264E-05  4518   0.685E-03    0.550E-03
RMM:  10    -0.765797085499E+03    0.13917E-06   -0.47558E-06  4871   0.251E-03    0.381E-03
RMM:  11    -0.765797085325E+03    0.17382E-06   -0.44307E-07  4266   0.749E-04    0.305E-03
RMM:  12    -0.765797085226E+03    0.99833E-07   -0.42339E-07  4005   0.627E-04    0.125E-03
RMM:  13    -0.765797085189E+03    0.36584E-07   -0.57080E-07  4150   0.662E-04    0.252E-03
RMM:  14    -0.765797085058E+03    0.13055E-06   -0.10730E-07  3766   0.376E-04    0.168E-03
RMM:  15    -0.765797084973E+03    0.85573E-07   -0.13814E-07  3456   0.306E-04    0.466E-04
RMM:  16    -0.765797084974E+03   -0.94587E-09   -0.71842E-08  3090   0.230E-04
  25 F= -.76579708E+03 E0= -.76579350E+03  d E =-.490418E+00
 curvature:  -1.99 expect dE=-0.325E+00 dE for cont linesearch -0.226E-05
 trial: gam= 0.40803 g(F)=  0.153E+00 g(S)=  0.107E-01 ort = 0.921E-03 (trialstep = 0.273E+01)
 search vector abs. value=  0.288E+00
 bond charge predicted
       N       E                     dE             d eps       ncg     rms          rms(c)
DAV:   1    -0.765816860866E+03   -0.19776E-01   -0.11256E+02  3856   0.136E+01    0.475E+00
RMM:   2    -0.766037635729E+03   -0.22077E+00   -0.46518E+00  4116   0.306E+00    0.111E+00
RMM:   3    -0.766144727175E+03   -0.10709E+00   -0.14436E+00  4816   0.145E+00    0.191E+00
RMM:   4    -0.766135414699E+03    0.93125E-02   -0.13205E-01  4345   0.452E-01    0.147E+00
RMM:   5    -0.766124338531E+03    0.11076E-01   -0.21784E-02  4100   0.194E-01    0.109E+00
RMM:   6    -0.766116642135E+03    0.76964E-02   -0.34546E-02  4125   0.183E-01    0.627E-01
RMM:   7    -0.766114755934E+03    0.18862E-02   -0.40563E-02  4326   0.164E-01    0.288E-01
RMM:   8    -0.766114984273E+03   -0.22834E-03   -0.38691E-03  4241   0.709E-02    0.253E-01
RMM:   9    -0.766113131761E+03    0.18525E-02   -0.15485E-03  3979   0.381E-02    0.180E-01
RMM:  10    -0.766112250900E+03    0.88086E-03   -0.74792E-03  4344   0.756E-02    0.600E-02
RMM:  11    -0.766112208530E+03    0.42370E-04   -0.56626E-04  4154   0.281E-02    0.398E-02
RMM:  12    -0.766112219390E+03   -0.10860E-04   -0.44420E-04  3891   0.203E-02    0.316E-02
RMM:  13    -0.766112227426E+03   -0.80357E-05   -0.13308E-04  4897   0.114E-02    0.317E-02
RMM:  14    -0.766112201140E+03    0.26286E-04   -0.20080E-04  3988   0.126E-02    0.149E-02
RMM:  15    -0.766112201980E+03   -0.84072E-06   -0.25397E-05  4445   0.623E-03    0.856E-03
RMM:  16    -0.766112201719E+03    0.26164E-06   -0.68029E-06  4878   0.272E-03    0.756E-03
RMM:  17    -0.766112200892E+03    0.82667E-06   -0.19905E-06  4069   0.141E-03    0.463E-03
RMM:  18    -0.766112201201E+03   -0.30916E-06   -0.59056E-06  3981   0.206E-03    0.899E-04
RMM:  19    -0.766112201273E+03   -0.71923E-07   -0.49791E-07  4186   0.910E-04    0.678E-04
RMM:  20    -0.766112201365E+03   -0.91561E-07   -0.23957E-07  3980   0.457E-04    0.867E-04
RMM:  21    -0.766112201329E+03    0.35732E-07   -0.20533E-08  2692   0.162E-04    0.869E-04
RMM:  22    -0.766112201166E+03    0.16289E-06   -0.96035E-08  3344   0.260E-04    0.252E-04
RMM:  23    -0.766112201156E+03    0.97498E-08   -0.34937E-08  3071   0.197E-04
  26 F= -.76611220E+03 E0= -.76610863E+03  d E =-.315116E+00
 trial-energy change:   -0.315116  1 .order   -0.315376   -0.446899   -0.183853
 step:   4.6337(harm=  4.6337)  dis= 0.09127  next Energy=  -766.176712 (dE=-0.380E+00)
 bond charge predicted
       N       E                     dE             d eps       ncg     rms          rms(c)
DAV:   1    -0.766028837194E+03    0.83364E-01   -0.54997E+01  3904   0.952E+00    0.328E+00
RMM:   2    -0.766137187256E+03   -0.10835E+00   -0.22322E+00  4130   0.213E+00    0.772E-01
RMM:   3    -0.766190537551E+03   -0.53350E-01   -0.70808E-01  4816   0.101E+00    0.135E+00
RMM:   4    -0.766186121630E+03    0.44159E-02   -0.62672E-02  4334   0.311E-01    0.102E+00
RMM:   5    -0.766180576208E+03    0.55454E-02   -0.10915E-02  4087   0.136E-01    0.751E-01
RMM:   6    -0.766176853670E+03    0.37225E-02   -0.18909E-02  4118   0.133E-01    0.409E-01
RMM:   7    -0.766176457484E+03    0.39619E-03   -0.20213E-02  4328   0.116E-01    0.213E-01
RMM:   8    -0.766176269101E+03    0.18838E-03   -0.17270E-03  4218   0.474E-02    0.182E-01
RMM:   9    -0.766175284734E+03    0.98437E-03   -0.93408E-04  4007   0.278E-02    0.129E-01
RMM:  10    -0.766174863465E+03    0.42127E-03   -0.35954E-03  4304   0.521E-02    0.369E-02
RMM:  11    -0.766174858206E+03    0.52597E-05   -0.34247E-04  4435   0.211E-02    0.368E-02
RMM:  12    -0.766174833432E+03    0.24773E-04   -0.22336E-04  3865   0.148E-02    0.202E-02
RMM:  13    -0.766174853172E+03   -0.19739E-04   -0.13236E-04  4633   0.106E-02    0.247E-02
RMM:  14    -0.766174838978E+03    0.14194E-04   -0.15574E-04  4030   0.111E-02    0.146E-02
RMM:  15    -0.766174837688E+03    0.12905E-05   -0.12066E-05  4097   0.465E-03    0.668E-03
RMM:  16    -0.766174837659E+03    0.28936E-07   -0.50376E-06  4434   0.235E-03    0.351E-03
RMM:  17    -0.766174837436E+03    0.22246E-06   -0.97150E-07  4669   0.107E-03    0.347E-03
RMM:  18    -0.766174837447E+03   -0.10754E-07   -0.12949E-06  3874   0.106E-03    0.102E-03
RMM:  19    -0.766174837544E+03   -0.97200E-07   -0.59228E-07  4364   0.683E-04    0.554E-04
RMM:  20    -0.766174837558E+03   -0.14246E-07   -0.65927E-08  3328   0.287E-04    0.347E-04
RMM:  21    -0.766174837563E+03   -0.43947E-08   -0.17747E-08  2658   0.142E-04
  27 F= -.76617484E+03 E0= -.76617130E+03  d E =-.377753E+00
 curvature:  -4.08 expect dE=-0.700E+00 dE for cont linesearch -0.521E-04
 trial: gam= 1.03278 g(F)=  0.156E+00 g(S)=  0.151E-01 ort =-0.192E-02 (trialstep = 0.189E+01)
 search vector abs. value=  0.475E+00
 bond charge predicted
       N       E                     dE             d eps       ncg     rms          rms(c)
DAV:   1    -0.766092383418E+03    0.82454E-01   -0.81122E+01  3840   0.110E+01    0.359E+00
RMM:   2    -0.766362657671E+03   -0.27027E+00   -0.31389E+00  4148   0.247E+00    0.718E-01
RMM:   3    -0.766445907571E+03   -0.83250E-01   -0.93852E-01  4886   0.115E+00    0.171E+00
RMM:   4    -0.766442075735E+03    0.38318E-02   -0.68268E-02  4343   0.327E-01    0.125E+00
RMM:   5    -0.766433234799E+03    0.88409E-02   -0.11108E-02  4297   0.129E-01    0.882E-01
RMM:   6    -0.766429923410E+03    0.33114E-02   -0.88235E-02  4307   0.222E-01    0.292E-01
RMM:   7    -0.766431996136E+03   -0.20727E-02   -0.10813E-02  4447   0.110E-01    0.512E-01
RMM:   8    -0.766427947872E+03    0.40483E-02   -0.45910E-03  4117   0.539E-02    0.354E-01
RMM:   9    -0.766425935330E+03    0.20125E-02   -0.12598E-02  4362   0.785E-02    0.117E-01
RMM:  10    -0.766425958521E+03   -0.23192E-04   -0.23920E-03  4763   0.459E-02    0.675E-02
RMM:  11    -0.766425799609E+03    0.15891E-03   -0.28546E-04  3885   0.172E-02    0.483E-02
RMM:  12    -0.766425774565E+03    0.25044E-04   -0.30468E-04  3896   0.144E-02    0.300E-02
RMM:  13    -0.766425783438E+03   -0.88729E-05   -0.52011E-05  4031   0.878E-03    0.432E-02
RMM:  14    -0.766425775838E+03    0.75999E-05   -0.17731E-05  4777   0.436E-03    0.288E-02
RMM:  15    -0.766425769824E+03    0.60138E-05   -0.22045E-05  4090   0.386E-03    0.835E-03
RMM:  16    -0.766425770606E+03   -0.78168E-06   -0.12237E-05  4346   0.316E-03    0.433E-03
RMM:  17    -0.766425770307E+03    0.29892E-06   -0.15632E-06  4014   0.137E-03    0.274E-03
RMM:  18    -0.766425770443E+03   -0.13594E-06   -0.36716E-07  4195   0.673E-04    0.814E-04
RMM:  19    -0.766425770502E+03   -0.59204E-07   -0.18888E-07  4107   0.417E-04    0.196E-03
RMM:  20    -0.766425770436E+03    0.66248E-07   -0.26917E-08  2780   0.189E-04    0.736E-04
RMM:  21    -0.766425770381E+03    0.54337E-07   -0.33340E-08  3004   0.179E-04    0.341E-04
RMM:  22    -0.766425770391E+03   -0.97934E-08   -0.81686E-09  2476   0.104E-04
  28 F= -.76642577E+03 E0= -.76642228E+03  d E =-.250933E+00
 trial-energy change:   -0.250933  1 .order   -0.250871   -0.319910   -0.181833
 step:   4.3717(harm=  4.3717)  dis= 0.11552  next Energy=  -766.545437 (dE=-0.371E+00)
 bond charge predicted
       N       E                     dE             d eps       ncg     rms          rms(c)
DAV:   1    -0.765955396596E+03    0.47037E+00   -0.14060E+02  3840   0.146E+01    0.485E+00
RMM:   2    -0.766431841068E+03   -0.47644E+00   -0.55240E+00  4141   0.327E+00    0.958E-01
RMM:   3    -0.766578563466E+03   -0.14672E+00   -0.16532E+00  4894   0.152E+00    0.227E+00
RMM:   4    -0.766571765078E+03    0.67984E-02   -0.12192E-01  4329   0.433E-01    0.167E+00
RMM:   5    -0.766556357540E+03    0.15408E-01   -0.19744E-02  4274   0.171E-01    0.118E+00
RMM:   6    -0.766549623251E+03    0.67343E-02   -0.14352E-01  4306   0.287E-01    0.364E-01
RMM:   7    -0.766552202811E+03   -0.25796E-02   -0.16778E-02  4461   0.138E-01    0.601E-01
RMM:   8    -0.766544904201E+03    0.72986E-02   -0.12058E-02  4212   0.815E-02    0.357E-01
RMM:   9    -0.766543643807E+03    0.12604E-02   -0.15403E-02  4095   0.959E-02    0.114E-01
RMM:  10    -0.766543652670E+03   -0.88627E-05   -0.29200E-03  4988   0.538E-02    0.952E-02
RMM:  11    -0.766543373885E+03    0.27879E-03   -0.36122E-04  3898   0.184E-02    0.697E-02
RMM:  12    -0.766543323486E+03    0.50399E-04   -0.50338E-04  3885   0.181E-02    0.310E-02
RMM:  13    -0.766543325128E+03   -0.16419E-05   -0.70582E-05  4105   0.112E-02    0.578E-02
RMM:  14    -0.766543317224E+03    0.79038E-05   -0.38610E-05  4688   0.612E-03    0.386E-02
RMM:  15    -0.766543311247E+03    0.59770E-05   -0.18561E-05  4117   0.392E-03    0.146E-02
RMM:  16    -0.766543311474E+03   -0.22631E-06   -0.11231E-05  4204   0.337E-03    0.542E-03
RMM:  17    -0.766543311299E+03    0.17408E-06   -0.15335E-06  4551   0.136E-03    0.233E-03
RMM:  18    -0.766543311312E+03   -0.12238E-07   -0.86832E-07  4404   0.863E-04    0.133E-03
RMM:  19    -0.766543311521E+03   -0.20938E-06   -0.62222E-07  4199   0.714E-04    0.247E-03
RMM:  20    -0.766543311404E+03    0.11743E-06   -0.89445E-08  3450   0.312E-04    0.624E-04
RMM:  21    -0.766543311358E+03    0.45839E-07   -0.61026E-08  3175   0.234E-04    0.379E-04
RMM:  22    -0.766543311384E+03   -0.25895E-07   -0.73783E-09  2493   0.110E-04    0.194E-04
RMM:  23    -0.766543311384E+03    0.10186E-09   -0.37546E-09  2376   0.704E-05
  29 F= -.76654331E+03 E0= -.76653989E+03  d E =-.368474E+00
 curvature:  -6.13 expect dE=-0.110E+01 dE for cont linesearch -0.835E-04
 trial: gam= 1.03604 g(F)=  0.177E+00 g(S)=  0.310E-02 ort =-0.255E-02 (trialstep = 0.165E+01)
 search vector abs. value=  0.685E+00
 bond charge predicted
       N       E                     dE             d eps       ncg     rms          rms(c)
DAV:   1    -0.766462007831E+03    0.81304E-01   -0.76389E+01  3936   0.108E+01    0.372E+00
RMM:   2    -0.766721681715E+03   -0.25967E+00   -0.30271E+00  4151   0.245E+00    0.681E-01
RMM:   3    -0.766812517990E+03   -0.90836E-01   -0.98259E-01  4933   0.116E+00    0.178E+00
RMM:   4    -0.766807034441E+03    0.54835E-02   -0.63166E-02  4273   0.328E-01    0.131E+00
RMM:   5    -0.766801101552E+03    0.59329E-02   -0.89720E-03  4476   0.120E-01    0.108E+00
RMM:   6    -0.766792293888E+03    0.88077E-02   -0.35005E-02  4089   0.145E-01    0.482E-01
RMM:   7    -0.766796204534E+03   -0.39106E-02   -0.46929E-02  4342   0.173E-01    0.396E-01
RMM:   8    -0.766795665096E+03    0.53944E-03   -0.19386E-03  4469   0.588E-02    0.409E-01
RMM:   9    -0.766791906495E+03    0.37586E-02   -0.58430E-03  4295   0.536E-02    0.235E-01
RMM:  10    -0.766791127246E+03    0.77925E-03   -0.85431E-03  4532   0.692E-02    0.872E-02
RMM:  11    -0.766791073231E+03    0.54014E-04   -0.28788E-04  4524   0.230E-02    0.679E-02
RMM:  12    -0.766791035625E+03    0.37606E-04   -0.80750E-05  4049   0.104E-02    0.477E-02
RMM:  13    -0.766791056862E+03   -0.21236E-04   -0.70716E-05  4468   0.832E-03    0.359E-02
RMM:  14    -0.766791036883E+03    0.19978E-04   -0.22029E-05  4026   0.439E-03    0.242E-02
RMM:  15    -0.766791024746E+03    0.12137E-04   -0.92765E-05  4298   0.669E-03    0.361E-03
RMM:  16    -0.766791025143E+03   -0.39690E-06   -0.40980E-06  4233   0.238E-03    0.609E-03
RMM:  17    -0.766791025113E+03    0.29839E-07   -0.10798E-06  4302   0.119E-03    0.384E-03
RMM:  18    -0.766791025069E+03    0.44362E-07   -0.16964E-06  4240   0.111E-03    0.160E-03
RMM:  19    -0.766791025131E+03   -0.61831E-07   -0.47748E-07  4663   0.654E-04    0.153E-03
RMM:  20    -0.766791025070E+03    0.60478E-07   -0.64446E-08  3217   0.260E-04    0.511E-04
RMM:  21    -0.766791025060E+03    0.10084E-07   -0.68100E-08  2960   0.220E-04    0.184E-04
RMM:  22    -0.766791025067E+03   -0.64101E-08   -0.11677E-08  2547   0.128E-04
  30 F= -.76679103E+03 E0= -.76678754E+03  d E =-.247714E+00
 trial-energy change:   -0.247714  1 .order   -0.246845   -0.293206   -0.200483
[...]
       N       E                     dE             d eps       ncg     rms          rms(c)
DAV:   1    -0.771201961777E+03   -0.35630E-03   -0.84244E-02  3952   0.393E-01    0.102E-01
RMM:   2    -0.771202193298E+03   -0.23152E-03   -0.29692E-03  4190   0.838E-02    0.212E-02
RMM:   3    -0.771202271881E+03   -0.78583E-04   -0.91010E-04  4802   0.380E-02    0.489E-02
WARNING in EDDRMM: call to ZHEGV failed, returncode =   8  4     41
RMM:   4    -0.771202271534E+03    0.34678E-06   -0.87443E-05  4453   0.120E-02    0.368E-02
RMM:   5    -0.771202265211E+03    0.63230E-05   -0.12454E-05  4347   0.463E-03    0.297E-02
RMM:   6    -0.771202256932E+03    0.82789E-05   -0.37197E-05  3960   0.541E-03    0.149E-02
RMM:   7    -0.771202264617E+03   -0.76845E-05   -0.73785E-05  4325   0.702E-03    0.144E-02
RMM:   8    -0.771202261283E+03    0.33336E-05   -0.53431E-06  4397   0.247E-03    0.129E-02
RMM:   9    -0.771202256606E+03    0.46776E-05   -0.29145E-05  4380   0.408E-03    0.229E-03
RMM:  10    -0.771202257022E+03   -0.41602E-06   -0.42372E-06  4863   0.209E-03    0.333E-03
RMM:  11    -0.771202256725E+03    0.29686E-06   -0.60896E-07  3840   0.773E-04    0.191E-03
RMM:  12    -0.771202256770E+03   -0.44725E-07   -0.64814E-07  3811   0.765E-04    0.863E-04
RMM:  13    -0.771202256891E+03   -0.12130E-06   -0.13590E-07  4189   0.357E-04    0.106E-03
RMM:  14    -0.771202256939E+03   -0.48538E-07   -0.16073E-08  2480   0.145E-04    0.703E-04
RMM:  15    -0.771202256980E+03   -0.40571E-07   -0.26581E-08  2826   0.158E-04    0.247E-04
RMM:  16    -0.771202256974E+03    0.57335E-08   -0.51668E-09  2383   0.862E-05
 230 F= -.77120226E+03 E0= -.77120039E+03  d E =-.651490E-03
 trial-energy change:   -0.000651  1 .order   -0.000669   -0.000802   -0.000537
 step:   4.7618(harm=  4.7618)  dis= 0.00886  next Energy=  -771.202821 (dE=-0.122E-02)
 bond charge predicted
       N       E                     dE             d eps       ncg     rms          rms(c)
DAV:   1    -0.771201542475E+03    0.71450E-03   -0.34825E-01  3840   0.798E-01    0.207E-01
RMM:   2    -0.771202502833E+03   -0.96036E-03   -0.12282E-02  4190   0.170E-01    0.430E-02
RMM:   3    -0.771202830195E+03   -0.32736E-03   -0.37667E-03  4806   0.774E-02    0.995E-02
RMM:   4    -0.771202827327E+03    0.28678E-05   -0.36046E-04  4453   0.243E-02    0.750E-02
RMM:   5    -0.771202800134E+03    0.27193E-04   -0.51520E-05  4356   0.941E-03    0.605E-02
RMM:   6    -0.771202763219E+03    0.36915E-04   -0.15245E-04  3965   0.110E-02    0.307E-02
RMM:   7    -0.771202790442E+03   -0.27223E-04   -0.29960E-04  4324   0.142E-02    0.288E-02
RMM:   8    -0.771202777583E+03    0.12859E-04   -0.21685E-05  4407   0.499E-03    0.262E-02
RMM:   9    -0.771202758966E+03    0.18617E-04   -0.11826E-04  4389   0.826E-03    0.460E-03
RMM:  10    -0.771202760590E+03   -0.16239E-05   -0.17116E-05  4860   0.421E-03    0.662E-03
RMM:  11    -0.771202759309E+03    0.12804E-05   -0.24002E-06  3890   0.155E-03    0.381E-03
RMM:  12    -0.771202759296E+03    0.12798E-07   -0.27495E-06  3874   0.157E-03    0.169E-03
RMM:  13    -0.771202759554E+03   -0.25723E-06   -0.49758E-07  4697   0.701E-04    0.212E-03
RMM:  14    -0.771202759634E+03   -0.79854E-07   -0.61842E-08  3557   0.278E-04    0.141E-03
RMM:  15    -0.771202759708E+03   -0.74688E-07   -0.10307E-07  3501   0.300E-04    0.526E-04
RMM:  16    -0.771202759697E+03    0.11270E-07   -0.22376E-08  2659   0.166E-04    0.275E-04
RMM:  17    -0.771202759650E+03    0.46675E-07   -0.61164E-09  2446   0.976E-05    0.146E-04
RMM:  18    -0.771202759640E+03    0.10135E-07   -0.73636E-09  2378   0.812E-05    0.993E-05
RMM:  19    -0.771202759648E+03   -0.79162E-08   -0.23808E-09  2101   0.538E-05
 231 F= -.77120276E+03 E0= -.77120090E+03  d E =-.115416E-02
 curvature: -13.44 expect dE=-0.805E-02 dE for cont linesearch -0.239E-05
 trial: gam= 0.60478 g(F)=  0.589E-03 g(S)=  0.949E-05 ort =-0.226E-04 (trialstep = 0.221E+01)
 search vector abs. value=  0.163E-02
 bond charge predicted
       N       E                     dE             d eps       ncg     rms          rms(c)
DAV:   1    -0.771203155054E+03   -0.39541E-03   -0.16861E-01  3872   0.542E-01    0.101E-01
RMM:   2    -0.771203617466E+03   -0.46241E-03   -0.53401E-03  4249   0.109E-01    0.219E-02
RMM:   3    -0.771203691353E+03   -0.73887E-04   -0.98054E-04  4563   0.443E-02    0.393E-02
WARNING in EDDRMM: call to ZHEGV failed, returncode =   8  4     42
RMM:   4    -0.771203701353E+03   -0.10000E-04   -0.19579E-04  4634   0.165E-02    0.328E-02
RMM:   5    -0.771203689915E+03    0.11438E-04   -0.26154E-05  4161   0.657E-03    0.217E-02
RMM:   6    -0.771203683319E+03    0.65952E-05   -0.54921E-05  3985   0.731E-03    0.865E-03
RMM:   7    -0.771203684709E+03   -0.13891E-05   -0.32362E-05  4383   0.552E-03    0.128E-02
RMM:   8    -0.771203680915E+03    0.37932E-05   -0.52527E-06  4003   0.215E-03    0.782E-03
RMM:   9    -0.771203679647E+03    0.12687E-05   -0.11091E-05  4045   0.284E-03    0.181E-03
RMM:  10    -0.771203679811E+03   -0.16480E-06   -0.30304E-06  4947   0.177E-03    0.250E-03
RMM:  11    -0.771203679688E+03    0.12328E-06   -0.21119E-07  3794   0.525E-04    0.164E-03
RMM:  12    -0.771203679786E+03   -0.98160E-07   -0.67595E-07  3823   0.732E-04    0.750E-04
RMM:  13    -0.771203679842E+03   -0.55727E-07   -0.66235E-08  3460   0.316E-04    0.897E-04
RMM:  14    -0.771203679859E+03   -0.16713E-07   -0.23966E-08  2709   0.165E-04    0.702E-04
RMM:  15    -0.771203679874E+03   -0.15134E-07   -0.23728E-08  2774   0.145E-04    0.268E-04
RMM:  16    -0.771203679869E+03    0.52969E-08   -0.10811E-08  2429   0.118E-04
 232 F= -.77120368E+03 E0= -.77120182E+03  d E =-.920220E-03
 trial-energy change:   -0.000920  1 .order   -0.000938   -0.001292   -0.000584
 step:   4.9832(harm=  4.0328)  dis= 0.00755  next Energy=  -771.204012 (dE=-0.125E-02)
 bond charge predicted
       N       E                     dE             d eps       ncg     rms          rms(c)
DAV:   1    -0.771203025077E+03    0.65480E-03   -0.26624E-01  3840   0.681E-01    0.127E-01
RMM:   2    -0.771203755836E+03   -0.73076E-03   -0.84359E-03  4248   0.138E-01    0.275E-02
RMM:   3    -0.771203872210E+03   -0.11637E-03   -0.15439E-03  4556   0.557E-02    0.493E-02
WARNING in EDDRMM: call to ZHEGV failed, returncode =   8  4     42
RMM:   4    -0.771203888191E+03   -0.15981E-04   -0.31246E-04  4635   0.208E-02    0.411E-02
RMM:   5    -0.771203869945E+03    0.18246E-04   -0.41897E-05  4162   0.833E-03    0.272E-02
RMM:   6    -0.771203859310E+03    0.10635E-04   -0.85481E-05  3986   0.916E-03    0.109E-02
RMM:   7    -0.771203861167E+03   -0.18575E-05   -0.50995E-05  4384   0.693E-03    0.159E-02
RMM:   8    -0.771203855306E+03    0.58611E-05   -0.82338E-06  4003   0.269E-03    0.974E-03
RMM:   9    -0.771203853367E+03    0.19395E-05   -0.17277E-05  4041   0.355E-03    0.227E-03
RMM:  10    -0.771203853579E+03   -0.21169E-06   -0.47074E-06  4946   0.220E-03    0.312E-03
RMM:  11    -0.771203853378E+03    0.20067E-06   -0.34098E-07  3889   0.663E-04    0.202E-03
RMM:  12    -0.771203853494E+03   -0.11572E-06   -0.10299E-06  3867   0.907E-04    0.943E-04
RMM:  13    -0.771203853563E+03   -0.69856E-07   -0.10290E-07  3703   0.390E-04    0.111E-03
RMM:  14    -0.771203853583E+03   -0.19587E-07   -0.37230E-08  2929   0.204E-04    0.870E-04
RMM:  15    -0.771203853601E+03   -0.17571E-07   -0.35131E-08  2997   0.174E-04    0.345E-04
RMM:  16    -0.771203853593E+03    0.78071E-08   -0.15635E-08  2479   0.138E-04
 233 F= -.77120385E+03 E0= -.77120199E+03  d E =-.109394E-02
 curvature:  -4.08 expect dE=-0.259E-02 dE for cont linesearch -0.379E-04
 ZBRENT: interpolating
 opt :   4.1035  next Energy=  -771.203908 (dE=-0.115E-02)
 bond charge predicted
       N       E                     dE             d eps       ncg     rms          rms(c)
DAV:   1    -0.771203831460E+03    0.22141E-04   -0.26767E-02  4016   0.216E-01    0.403E-02
RMM:   2    -0.771203905679E+03   -0.74219E-04   -0.84615E-04  4240   0.436E-02    0.874E-03
RMM:   3    -0.771203917731E+03   -0.12052E-04   -0.15590E-04  4556   0.177E-02    0.158E-02
 num prob  num prob  num prob RMM:   4    -0.771203919079E+03   -0.13471E-05   -0.31368E-05  4548   0.664E-03    0.131E-02
 num prob  num prob RMM:   5    -0.771203916920E+03    0.21582E-05   -0.44712E-06  4140   0.270E-03    0.872E-03
 num prob  num prob RMM:   6    -0.771203915305E+03    0.16157E-05   -0.91313E-06  3945   0.301E-03    0.346E-03
 num prob  num prob RMM:   7    -0.771203915203E+03    0.10159E-06   -0.55391E-06  4361   0.230E-03    0.538E-03
 num prob  num prob RMM:   8    -0.771203914640E+03    0.56260E-06   -0.90881E-07  3930   0.921E-04    0.330E-03
 num prob RMM:   9    -0.771203914470E+03    0.17030E-06   -0.20845E-06  3970   0.124E-03    0.719E-04
 num prob  num prob RMM:  10    -0.771203914427E+03    0.43103E-07   -0.55528E-07  4704   0.773E-04    0.104E-03
 num prob RMM:  11    -0.771203914391E+03    0.36329E-07   -0.10883E-07  3171   0.250E-04    0.687E-04
WARNING in EDDRMM: call to ZHEGV failed, returncode =   8  4     41
 num prob RMM:  12    -0.771203914331E+03    0.59517E-07   -0.16489E-07  3454   0.311E-04    0.322E-04
 num prob  num prob RMM:  13    -0.771203914306E+03    0.25517E-07   -0.46828E-08  2506   0.155E-04    0.400E-04
 num prob  num prob RMM:  14    -0.771203914294E+03    0.11729E-07   -0.18781E-08  2386   0.104E-04    0.299E-04
 num prob  num prob RMM:  15    -0.771203914282E+03    0.11627E-07   -0.21056E-08  2377   0.106E-04    0.974E-05
 num prob  num prob RMM:  16    -0.771203914286E+03   -0.34343E-08   -0.58980E-08  2121   0.895E-05
 234 F= -.77120391E+03 E0= -.77120205E+03  d E =-.115464E-02
 curvature:  -5.82 expect dE=-0.255E-02 dE for cont linesearch -0.100E-06
 trial: gam= 0.70967 g(F)=  0.434E-03 g(S)=  0.401E-05 ort =-0.529E-05 (trialstep = 0.259E+01)
 search vector abs. value=  0.125E-02
 bond charge predicted
       N       E                     dE             d eps       ncg     rms          rms(c)
DAV:   1    -0.771204122574E+03   -0.20829E-03   -0.18436E-01  3888   0.567E-01    0.104E-01
RMM:   2    -0.771204617410E+03   -0.49484E-03   -0.56107E-03  4246   0.112E-01    0.223E-02
RMM:   3    -0.771204697818E+03   -0.80408E-04   -0.10505E-03  4565   0.459E-02    0.406E-02
RMM:   4    -0.771204707530E+03   -0.97124E-05   -0.20173E-04  4646   0.167E-02    0.338E-02
RMM:   5    -0.771204690017E+03    0.17513E-04   -0.35866E-05  4137   0.736E-03    0.180E-02
RMM:   6    -0.771204690631E+03   -0.61327E-06   -0.74481E-05  3980   0.839E-03    0.102E-02
RMM:   7    -0.771204687991E+03    0.26400E-05   -0.22315E-05  4416   0.495E-03    0.152E-02
RMM:   8    -0.771204685287E+03    0.27039E-05   -0.20065E-06  4371   0.146E-03    0.126E-02
RMM:   9    -0.771204681354E+03    0.39325E-05   -0.26080E-05  4547   0.375E-03    0.217E-03
RMM:  10    -0.771204681552E+03   -0.19791E-06   -0.23249E-06  5013   0.163E-03    0.307E-03
RMM:  11    -0.771204681249E+03    0.30365E-06   -0.41292E-07  3853   0.675E-04    0.191E-03
RMM:  12    -0.771204681149E+03    0.99215E-07   -0.61264E-07  3985   0.658E-04    0.150E-03
RMM:  13    -0.771204681126E+03    0.23661E-07   -0.79750E-08  3429   0.361E-04    0.125E-03
RMM:  14    -0.771204681081E+03    0.44362E-07   -0.13398E-07  3574   0.339E-04    0.551E-04
RMM:  15    -0.771204681081E+03    0.83674E-09   -0.10831E-07  3531   0.273E-04    0.319E-04
RMM:  16    -0.771204681084E+03   -0.33106E-08   -0.17093E-08  2671   0.143E-04
 235 F= -.77120468E+03 E0= -.77120282E+03  d E =-.766798E-03
 trial-energy change:   -0.000767  1 .order   -0.000764   -0.001125   -0.000404
 step:   3.9960(harm=  4.0388)  dis= 0.00600  next Energy=  -771.204792 (dE=-0.877E-03)
 bond charge predicted
       N       E                     dE             d eps       ncg     rms          rms(c)
DAV:   1    -0.771204638529E+03    0.42551E-04   -0.54661E-02  3920   0.309E-01    0.566E-02
RMM:   2    -0.771204785389E+03   -0.14686E-03   -0.16648E-03  4250   0.612E-02    0.122E-02
RMM:   3    -0.771204809178E+03   -0.23790E-04   -0.31009E-04  4560   0.249E-02    0.220E-02
WARNING in EDDRMM: call to ZHEGV failed, returncode =   6  3     42
WARNING in EDDRMM: call to ZHEGV failed, returncode =   8  4     42
RMM:   4    -0.771204812057E+03   -0.28786E-05   -0.60270E-05  4638   0.916E-03    0.183E-02
 num prob  num prob WARNING in EDDRMM: call to ZHEGV failed, returncode =   8  4     40
RMM:   5    -0.771204806801E+03    0.52555E-05   -0.10684E-05  4107   0.405E-03    0.973E-03
RMM:   6    -0.771204806842E+03   -0.40753E-07   -0.21599E-05  3975   0.455E-03    0.542E-03
 num prob RMM:   7    -0.771204806000E+03    0.84210E-06   -0.65218E-06  4397   0.268E-03    0.808E-03
RMM:   8    -0.771204805213E+03    0.78743E-06   -0.65866E-07  4333   0.810E-04    0.666E-03
 num prob RMM:   9    -0.771204804118E+03    0.10947E-05   -0.75547E-06  4504   0.203E-03    0.116E-03
RMM:  10    -0.771204804153E+03   -0.34721E-07   -0.62699E-07  4919   0.853E-04    0.157E-03
 num prob RMM:  11    -0.771204804067E+03    0.85711E-07   -0.79966E-08  3630   0.363E-04    0.954E-04
 num prob RMM:  12    -0.771204804039E+03    0.28289E-07   -0.20297E-07  3614   0.353E-04    0.771E-04
RMM:  13    -0.771204804027E+03    0.12049E-07   -0.40192E-08  2566   0.185E-04    0.665E-04
 num prob RMM:  14    -0.771204804010E+03    0.16982E-07   -0.44882E-08  2913   0.176E-04    0.306E-04
RMM:  15    -0.771204804007E+03    0.22119E-08   -0.43041E-08  2841   0.149E-04
 236 F= -.77120480E+03 E0= -.77120294E+03  d E =-.889722E-03
 curvature:  -5.80 expect dE=-0.184E-02 dE for cont linesearch -0.841E-06
 trial: gam= 0.62005 g(F)=  0.316E-03 g(S)=  0.201E-05 ort = 0.135E-04 (trialstep = 0.287E+01)
 search vector abs. value=  0.815E-03
 bond charge predicted
       N       E                     dE             d eps       ncg     rms          rms(c)
DAV:   1    -0.771204962273E+03   -0.15826E-03   -0.15709E-01  3888   0.523E-01    0.101E-01
RMM:   2    -0.771205380317E+03   -0.41804E-03   -0.47163E-03  4192   0.104E-01    0.211E-02
RMM:   3    -0.771205468004E+03   -0.87687E-04   -0.10367E-03  4637   0.445E-02    0.448E-02
WARNING in EDDRMM: call to ZHEGV failed, returncode =   8  4     41
RMM:   4    -0.771205473012E+03   -0.50080E-05   -0.17708E-04  4635   0.157E-02    0.363E-02
 num prob RMM:   5    -0.771205463529E+03    0.94831E-05   -0.17927E-05  4195   0.542E-03    0.283E-02
RMM:   6    -0.771205451100E+03    0.12429E-04   -0.73027E-05  4008   0.769E-03    0.854E-03
 num prob RMM:   7    -0.771205458616E+03   -0.75162E-05   -0.73133E-05  4236   0.783E-03    0.195E-02
RMM:   8    -0.771205455220E+03    0.33961E-05   -0.38196E-06  4030   0.257E-03    0.171E-02
 num prob RMM:   9    -0.771205448161E+03    0.70592E-05   -0.17400E-05  4333   0.301E-03    0.739E-03
RMM:  10    -0.771205447659E+03    0.50164E-06   -0.16336E-05  4543   0.325E-03    0.288E-03
 num prob RMM:  11    -0.771205447488E+03    0.17155E-06   -0.73041E-07  4449   0.108E-03    0.227E-03
 num prob RMM:  12    -0.771205447404E+03    0.83375E-07   -0.13186E-07  3677   0.435E-04    0.192E-03
WARNING in EDDRMM: call to ZHEGV failed, returncode =   8  4     42
RMM:  13    -0.771205447318E+03    0.86628E-07   -0.22178E-07  3778   0.424E-04    0.203E-03
 num prob RMM:  14    -0.771205447213E+03    0.10492E-06   -0.26874E-07  3968   0.414E-04    0.855E-04
RMM:  15    -0.771205447180E+03    0.32218E-07   -0.82471E-08  3486   0.267E-04    0.243E-04
 num prob RMM:  16    -0.771205447183E+03   -0.28522E-08   -0.29093E-08  2865   0.172E-04
 237 F= -.77120545E+03 E0= -.77120358E+03  d E =-.643176E-03
 trial-energy change:   -0.000643  1 .order   -0.000647   -0.000936   -0.000359
 step:   4.7841(harm=  4.6513)  dis= 0.00546  next Energy=  -771.205566 (dE=-0.762E-03)
 bond charge predicted
       N       E                     dE             d eps       ncg     rms          rms(c)
DAV:   1    -0.771205350795E+03    0.96385E-04   -0.69984E-02  3936   0.349E-01    0.678E-02
RMM:   2    -0.771205537074E+03   -0.18628E-03   -0.21016E-03  4194   0.692E-02    0.141E-02
RMM:   3    -0.771205576263E+03   -0.39189E-04   -0.46171E-04  4632   0.297E-02    0.299E-02
WARNING in EDDRMM: call to ZHEGV failed, returncode =   8  4     41
RMM:   4    -0.771205578491E+03   -0.22279E-05   -0.79626E-05  4635   0.105E-02    0.242E-02
 num prob  num prob RMM:   5    -0.771205574214E+03    0.42773E-05   -0.78986E-06  4152   0.363E-03    0.189E-02
RMM:   6    -0.771205568537E+03    0.56769E-05   -0.32729E-05  3974   0.519E-03    0.565E-03
WARNING in EDDRMM: call to ZHEGV failed, returncode =   8  4     42
 num prob RMM:   7    -0.771205571874E+03   -0.33375E-05   -0.33619E-05  4165   0.533E-03    0.131E-02
RMM:   8    -0.771205570396E+03    0.14782E-05   -0.18971E-06  4034   0.182E-03    0.115E-02
 num prob RMM:   9    -0.771205567296E+03    0.30998E-05   -0.60679E-06  4124   0.187E-03    0.570E-03
RMM:  10    -0.771205566978E+03    0.31815E-06   -0.10538E-05  4525   0.251E-03    0.210E-03
RMM:  11    -0.771205566877E+03    0.10136E-06   -0.39189E-07  4308   0.822E-04    0.160E-03
 num prob RMM:  12    -0.771205566842E+03    0.34888E-07   -0.10149E-07  3311   0.333E-04    0.135E-03
RMM:  13    -0.771205566804E+03    0.37551E-07   -0.11512E-07  3535   0.326E-04    0.154E-03
 num prob RMM:  14    -0.771205566735E+03    0.69187E-07   -0.13852E-07  3819   0.306E-04    0.702E-04
RMM:  15    -0.771205566711E+03    0.24032E-07   -0.79427E-08  3190   0.222E-04    0.160E-04
 num prob RMM:  16    -0.771205566708E+03    0.29249E-08   -0.72398E-09  2395   0.131E-04
 238 F= -.77120557E+03 E0= -.77120370E+03  d E =-.762701E-03
 curvature:  -5.78 expect dE=-0.161E-02 dE for cont linesearch -0.186E-06
 trial: gam= 0.83246 g(F)=  0.271E-03 g(S)=  0.691E-05 ort = 0.513E-05 (trialstep = 0.311E+01)
 search vector abs. value=  0.851E-03
 bond charge predicted
       N       E                     dE             d eps       ncg     rms          rms(c)
DAV:   1    -0.771205624863E+03   -0.58152E-04   -0.16434E-01  3840   0.537E-01    0.115E-01
RMM:   2    -0.771206064166E+03   -0.43930E-03   -0.52112E-03  4187   0.109E-01    0.251E-02
RMM:   3    -0.771206178942E+03   -0.11478E-03   -0.12786E-03  4705   0.477E-02    0.516E-02
WARNING in EDDRMM: call to ZHEGV failed, returncode =   8  4     40
RMM:   4    -0.771206173364E+03    0.55778E-05   -0.17402E-04  4559   0.159E-02    0.413E-02
WARNING in EDDRMM: call to ZHEGV failed, returncode =   8  4     41
RMM:   5    -0.771206161619E+03    0.11746E-04   -0.20961E-05  4246   0.591E-03    0.314E-02
RMM:   6    -0.771206153536E+03    0.80828E-05   -0.13490E-04  4357   0.979E-03    0.112E-02
RMM:   7    -0.771206159599E+03   -0.60629E-05   -0.31905E-05  4365   0.575E-03    0.203E-02
RMM:   8    -0.771206153810E+03    0.57888E-05   -0.41578E-06  3978   0.206E-03    0.161E-02
RMM:   9    -0.771206146881E+03    0.69291E-05   -0.44223E-05  4462   0.510E-03    0.231E-03
RMM:  10    -0.771206147069E+03   -0.18833E-06   -0.16988E-06  4514   0.168E-03    0.212E-03
RMM:  11    -0.771206147044E+03    0.25342E-07   -0.28322E-07  3862   0.746E-04    0.169E-03
RMM:  12    -0.771206147116E+03   -0.72381E-07   -0.44224E-07  3817   0.650E-04    0.945E-04
RMM:  13    -0.771206147193E+03   -0.76718E-07   -0.37941E-07  3844   0.589E-04    0.174E-03
RMM:  14    -0.771206147244E+03   -0.51099E-07   -0.98784E-08  3578   0.347E-04    0.752E-04
RMM:  15    -0.771206147275E+03   -0.30828E-07   -0.11142E-07  3459   0.276E-04    0.176E-04
RMM:  16    -0.771206147261E+03    0.14203E-07   -0.17725E-08  2609   0.153E-04    0.695E-05
RMM:  17    -0.771206147260E+03    0.10477E-08   -0.10507E-08  2351   0.113E-04
 239 F= -.77120615E+03 E0= -.77120428E+03  d E =-.580552E-03
 trial-energy change:   -0.000581  1 .order   -0.000587   -0.000878   -0.000296
 step:   4.9004(harm=  4.6996)  dis= 0.00422  next Energy=  -771.206231 (dE=-0.664E-03)
 reached required accuracy - stopping structural energy minimisation
