unknown system                          
           1
   -17.484904  -26.338586    0.000000
    -7.007836  -24.761182    0.000000
     0.000000    0.000000   30.350380
   Cl   Na   O 
    36   204    36
Direct configuration=     1
   0.85933712  0.19034613  0.30825996
   0.57300566  0.59145705  0.41905693
   0.43865998  0.37993559  0.04633967
   0.12523913  0.81839381  0.19917223
   0.07014345  0.09478378  0.30832350
   0.80582698  0.46608998  0.41854145
   0.60577105  0.34432419  0.04493127
   0.36661406  0.67931453  0.19923338
   0.30285499  0.97033876  0.30630824
   0.03552388  0.34493953  0.41848759
   0.88385811  0.15555117  0.04895426
   0.57424440  0.58991404  0.19871493
   0.74799708  0.74758673  0.30757681
   0.48527257  0.11475744  0.42010252
   0.53369426  0.84809606  0.30817485
   0.24223233  0.25558894  0.41954258
   0.05291709  0.11893112  0.04441430
   0.80547694  0.46653872  0.19402346
   0.97832731  0.62567902  0.30879457
   0.68289750  0.03798501  0.42021663
   0.54613732  0.83090399  0.04118565
   0.24244547  0.25685117  0.19878348
   0.30380293  0.96994040  0.07822368
   0.03370347  0.34772153  0.19850558
   0.18696314  0.53293811  0.30910982
   0.92572903  0.89773112  0.42039959
   0.72206568  0.78411942  0.04950604
   0.48401458  0.11720989  0.19878401
   0.42067755  0.40491366  0.30918657
   0.12264593  0.82241563  0.42060053
   0.99924214  0.59737712  0.04463441
   0.68511146  0.03562116  0.19939656
   0.62924097  0.31256341  0.30912186
   0.37090174  0.67403635  0.42006631
   0.16516637  0.56339176  0.04556280
   0.92274844  0.90158729  0.19969475
   0.48372240  0.00705187  0.04956246
   0.24379732  0.36268588  0.16499234
   0.94512584  0.76596959  0.27540469
   0.68528658  0.13956124  0.38792363
   0.73338868  0.88020485  0.05068023
   0.51333196  0.07693166  0.10668602
   0.44417509  0.26358203  0.16477382
   0.16897652  0.55836059  0.22040026
   0.17924069  0.64972734  0.27589188
   0.93570587  0.88443358  0.33129547
   0.89487418  0.03538508  0.38868122
   0.61638358  0.33001373  0.44994019
   0.65027187  0.08453261  0.10743642
   0.43896559  0.37931281  0.22052255
   0.10966973  0.84042749  0.33167527
   0.86922441  0.17743263  0.44956041
   0.67835113  0.15609582  0.05016175
   0.36460037  0.57474678  0.16512012
   0.10377768  0.95364597  0.27524970
   0.81201853  0.35296725  0.38516657
   0.60926052  0.45117976  0.04557777
   0.39875029  0.63427503  0.10677125
   0.87002359  0.06349348  0.05228192
   0.33758117  0.81459034  0.16568537
   0.05801788  0.11168918  0.21945399
   0.60653376  0.45055258  0.16363029
   0.06209531  0.20910296  0.27212851
   0.80541344  0.46648653  0.32854943
   0.31367883  0.85036627  0.27532816
   0.79630230  0.58180323  0.38617669
   0.54152621  0.83686022  0.45139653
   0.04257604  0.23389857  0.38434139
   0.81505255  0.34060386  0.04780933
   0.55004946  0.62128753  0.10769503
   0.12068584  0.93614301  0.05077080
   0.56256981  0.70805139  0.16063496
   0.30506874  0.96732815  0.21637101
   0.81281578  0.35134660  0.16228957
   0.29036781  0.09146697  0.27396631
   0.04114984  0.33787046  0.32954168
   0.54404367  0.73150493  0.27302597
   0.01004958  0.47681953  0.38625296
   0.73982444  0.75839295  0.44891910
   0.26788174  0.12361345  0.38715998
   0.54927347  0.71942101  0.04581998
   0.27188614  0.12094769  0.16428298
   0.98826351  0.50798968  0.27438187
   0.71431197  0.90034967  0.38815206
   0.05863125  0.22146457  0.04386681
   0.81236515  0.45692692  0.10032239
   0.31750294  0.84150623  0.05352346
   0.79475649  0.58426875  0.16258713
   0.54647339  0.83034134  0.21934045
   0.04952109  0.22510867  0.15995371
   0.50332722  0.98567768  0.27403395
   0.23432426  0.26722829  0.33003701
   0.77299934  0.61620012  0.27440477
   0.24443579  0.35767108  0.38751171
   0.99273520  0.60476336  0.45029750
   0.48222446  0.01366112  0.38696774
   0.78581434  0.60372646  0.04928467
   0.48078842  0.01447229  0.16382720
   0.22039790  0.39251643  0.27565990
   0.92347186  0.79537543  0.38746269
   0.28444861  0.10359099  0.05186438
   0.05400779  0.32183133  0.10758852
   0.00330395  0.48511788  0.16393809
   0.73621799  0.76413568  0.21839849
   0.73642019  0.86848723  0.27511851
   0.49755167  0.09802585  0.33120410
   0.45139348  0.25614101  0.38751093
   0.17525511  0.54864543  0.44975489
   0.99359010  0.49336455  0.04624068
   0.71847901  0.89714805  0.16498866
   0.42812294  0.28853467  0.27575628
   0.15704483  0.68048736  0.38783320
   0.20820529  0.30501216  0.10645997
   0.99420753  0.60390383  0.22003597
   0.67227418  0.05287488  0.33092248
   0.43379208  0.38588193  0.45061949
   0.92597479  0.78643738  0.04971950
   0.23485237  0.37860450  0.05023414
   0.68514541  0.14329761  0.16500127
   0.92233807  0.79503018  0.16478336
   0.38633013  0.54661093  0.27572348
   0.66219161  0.17267677  0.27580414
   0.12901329  0.91993395  0.38856709
   0.36423059  0.57700420  0.38755410
   0.17121522  0.66520743  0.04947032
   0.95656009  0.85452584  0.10746123
   0.43291143  0.27767493  0.04978919
   0.88908586  0.04003452  0.16569717
   0.61302642  0.33482130  0.22042390
   0.16407767  0.67368346  0.16463278
   0.61831636  0.43207987  0.27427654
   0.37607467  0.66665077  0.33071637
   0.87046980  0.07040749  0.27589095
   0.34124299  0.81043570  0.38937140
   0.05787862  0.11288820  0.45134669
   0.60124050  0.45681946  0.38590611
   0.36920112  0.56468251  0.05004879
   0.09334559  0.86250041  0.10722341
   0.12821796  0.92215520  0.16463496
   0.87505350  0.16848769  0.21906064
   0.83022283  0.32563422  0.27401179
   0.55963194  0.60913593  0.33024402
   0.56937190  0.69904505  0.38595174
   0.30334807  0.96976432  0.44801398
   0.95885925  0.98587768  0.52896690
   0.87433981  0.82065203  0.56765465
   0.91666236  0.90328342  0.59623489
   0.83351241  0.73659496  0.64455277
   0.87505723  0.82003744  0.68515103
   0.79176103  0.65332106  0.72190464
   0.83354148  0.73643155  0.76555215
   0.75022692  0.56966937  0.80213376
   0.79125036  0.65340456  0.84312281
   0.70814272  0.48670098  0.89116295
   0.75023066  0.56972896  0.91975042
   0.66717879  0.40253980  0.95881429
   0.08385919  0.23587780  0.52896702
   0.99933982  0.07065204  0.56765463
   0.04166229  0.15328356  0.59623494
   0.95851238  0.98659501  0.64455276
   0.00005712  0.07003764  0.68515102
   0.91676107  0.90332098  0.72190464
   0.95854149  0.98643158  0.76555217
   0.87522702  0.81966919  0.80213377
   0.91625042  0.90340447  0.84312284
   0.83314276  0.73670090  0.89116295
   0.87523075  0.81972881  0.91975045
   0.79217876  0.65253987  0.95881431
   0.45885919  0.98587779  0.52896695
   0.37433974  0.82065216  0.56765465
   0.41666229  0.90328356  0.59623494
   0.33351234  0.73659509  0.64455277
   0.37505709  0.82003768  0.68515103
   0.29176103  0.65332107  0.72190464
   0.33354142  0.73643170  0.76555216
   0.25022700  0.56966922  0.80213378
   0.29125038  0.65340453  0.84312285
   0.20814278  0.48670085  0.89116298
   0.25023069  0.56972887  0.91975048
   0.16717877  0.40253983  0.95881433
   0.20885923  0.48587770  0.52896691
   0.12433976  0.32065213  0.56765468
   0.16666235  0.40328345  0.59623493
   0.08351231  0.23659513  0.64455282
   0.12505715  0.32003758  0.68515104
   0.04176094  0.15332121  0.72190464
   0.08354141  0.23643171  0.76555216
   0.00022693  0.06966935  0.80213379
   0.04125033  0.15340464  0.84312278
   0.95814274  0.98670092  0.89116300
   0.00023068  0.06972890  0.91975048
   0.91717877  0.90253984  0.95881435
   0.58385921  0.23587772  0.52896689
   0.49933981  0.07065204  0.56765466
   0.54166238  0.15328339  0.59623490
   0.45851235  0.98659506  0.64455280
   0.50005721  0.07003747  0.68515104
   0.41676097  0.90332117  0.72190464
   0.45854147  0.98643161  0.76555215
   0.37522690  0.81966942  0.80213377
   0.41625034  0.90340463  0.84312280
   0.33314271  0.73670097  0.89116298
   0.37523070  0.81972891  0.91975045
   0.29217879  0.65253981  0.95881435
   0.33385924  0.73587769  0.52896695
   0.24933984  0.57065198  0.56765462
   0.29166232  0.65328348  0.59623489
   0.20851244  0.48659490  0.64455277
   0.25005718  0.57003751  0.68515102
   0.16676109  0.40332096  0.72190464
   0.20854152  0.48643150  0.76555216
   0.12522693  0.31966935  0.80213376
   0.16625040  0.40340450  0.84312283
   0.08314269  0.23670101  0.89116293
   0.12523065  0.31972895  0.91975042
   0.04217877  0.15253986  0.95881423
   0.70885923  0.48587772  0.52896703
   0.62433982  0.32065203  0.56765461
   0.66666231  0.40328352  0.59623491
   0.58351242  0.23659493  0.64455275
   0.62505718  0.32003754  0.68515101
   0.54176106  0.15332098  0.72190464
   0.58354154  0.23643150  0.76555217
   0.50022695  0.06966928  0.80213377
   0.54125042  0.15340446  0.84312283
   0.45814273  0.98670096  0.89116294
   0.50023069  0.06972888  0.91975045
   0.41717874  0.90253991  0.95881426
   0.83385923  0.73587773  0.52896690
   0.74933977  0.57065213  0.56765466
   0.79166230  0.65328353  0.59623494
   0.70851233  0.48659512  0.64455282
   0.75005709  0.57003767  0.68515104
   0.66676098  0.40332115  0.72190464
   0.70854143  0.48643170  0.76555216
   0.62522692  0.31966935  0.80213379
   0.66625036  0.40340459  0.84312282
   0.58314276  0.23670089  0.89116299
   0.62523069  0.31972888  0.91975049
   0.54217881  0.15253979  0.95881432
   0.36014858  0.19163720  0.10115588
   0.08320852  0.57909088  0.21029387
   0.80395428  0.96876905  0.32290765
   0.52397319  0.35875454  0.43034287
   0.58213620  0.08081969  0.10183981
   0.30399150  0.46886316  0.21056690
   0.02453474  0.86010326  0.32308820
   0.74551524  0.24970649  0.43035865
   0.46940431  0.63356486  0.10194338
   0.18930874  0.02731508  0.20966824
   0.91789792  0.41034725  0.32108286
   0.64073648  0.79636879  0.42985327
   0.68889825  0.52744727  0.09890926
   0.41844472  0.91056049  0.20927285
   0.14007794  0.29923478  0.32163565
   0.86366854  0.68618003  0.43003748
   0.91979641  0.40900557  0.09871343
   0.64046725  0.79770064  0.20881425
   0.36326743  0.18681916  0.32219491
   0.08371789  0.57665353  0.43001107
   0.13672040  0.30683989  0.10150948
   0.86167953  0.68950405  0.21036242
   0.58323013  0.07748352  0.32268735
   0.30435804  0.46806010  0.43010979
   0.80302418  0.97026035  0.10177143
   0.52453964  0.35883879  0.21056638
   0.24468346  0.75074625  0.32280946
   0.96740100  0.14102886  0.43018529
   0.02383558  0.85918323  0.10225647
   0.74642920  0.24800090  0.21060404
   0.46657518  0.63957922  0.32223113
   0.18882641  0.02828073  0.43011933
   0.24582629  0.74901496  0.10165895
   0.96703681  0.13976851  0.20934960
   0.68843033  0.52887620  0.32134573
   0.41883066  0.90993436  0.43005155
unknown system                          
           1
   -17.482027  -26.276745    0.006764
    -6.976085  -24.723357    0.002459
    -0.012550    0.000537   30.112899
   Cl   Na   O 
    36   204    36
Direct configuration=     2
   0.85944489  0.19024041  0.30824545
   0.57318886  0.59129359  0.41942744
   0.43872774  0.37982738  0.04675654
   0.12504942  0.81857349  0.19922604
   0.07010023  0.09480741  0.30829794
   0.80580658  0.46606979  0.41883743
   0.60570634  0.34446131  0.04530798
   0.36682409  0.67911949  0.19929333
   0.30284366  0.97033187  0.30631585
   0.03558436  0.34476670  0.41894182
   0.88316344  0.15635110  0.04926963
   0.57413649  0.59000654  0.19872986
   0.74788885  0.74768761  0.30757201
   0.48516909  0.11491494  0.42039982
   0.53371046  0.84807258  0.30813431
   0.24243595  0.25527758  0.41986971
   0.05299517  0.11885701  0.04504496
   0.80553000  0.46647696  0.19407692
   0.97842554  0.62556009  0.30878645
   0.68286599  0.03804730  0.42054670
   0.54594122  0.83098966  0.04150683
   0.24222461  0.25705808  0.19883294
   0.30368674  0.97005215  0.07853434
   0.03378244  0.34764136  0.19850277
   0.18679212  0.53310661  0.30908960
   0.92574991  0.89777213  0.42062667
   0.72251460  0.78345015  0.04976653
   0.48419380  0.11703338  0.19883007
   0.42081938  0.40478171  0.30918717
   0.12240841  0.82261170  0.42101475
   0.99966399  0.59685427  0.04493081
   0.68486898  0.03584578  0.19944810
   0.62902975  0.31279768  0.30911685
   0.37077538  0.67429158  0.42066594
   0.16502290  0.56357217  0.04601699
   0.92298910  0.90135356  0.19974780
   0.48265655  0.00836144  0.04925085
   0.24373564  0.36268486  0.16491916
   0.94490122  0.76619906  0.27541869
   0.68473041  0.14022567  0.38787012
   0.73290424  0.88080372  0.05042240
   0.51328100  0.07715966  0.10655989
   0.44413431  0.26363602  0.16477748
   0.16878555  0.55853361  0.22040970
   0.17898897  0.64995404  0.27584870
   0.93589757  0.88424605  0.33126804
   0.89398948  0.03639357  0.38864780
   0.61667214  0.32958715  0.44921256
   0.65010524  0.08461616  0.10729446
   0.43917108  0.37914404  0.22052580
   0.10943118  0.84062523  0.33158736
   0.86879480  0.17819936  0.44879153
   0.67874322  0.15549080  0.04992904
   0.36463972  0.57473492  0.16503024
   0.10396330  0.95344302  0.27526407
   0.81283296  0.35206492  0.38510062
   0.60799042  0.45236050  0.04645334
   0.39893192  0.63409824  0.10662848
   0.87069447  0.06262147  0.05198396
   0.33747168  0.81464492  0.16568498
   0.05788222  0.11178985  0.21945803
   0.60658610  0.45052180  0.16363420
   0.06188314  0.20931674  0.27210204
   0.80538790  0.46649660  0.32850210
   0.31383164  0.85022346  0.27528912
   0.79544397  0.58278458  0.38617360
   0.54248078  0.83507808  0.45002624
   0.04326346  0.23301738  0.38432073
   0.81411110  0.34174981  0.04756958
   0.54994871  0.62136992  0.10765270
   0.12160822  0.93483157  0.05050076
   0.56251866  0.70806608  0.16056997
   0.30506444  0.96733948  0.21637784
   0.81285304  0.35138384  0.16223866
   0.29020739  0.09161496  0.27392928
   0.04125274  0.33779141  0.32945676
   0.54427293  0.73126250  0.27301315
   0.00928580  0.47779387  0.38629427
   0.73958930  0.75835618  0.44826407
   0.26878920  0.12254879  0.38717312
   0.55073300  0.71743847  0.04604881
   0.27197895  0.12086582  0.16428108
   0.98847412  0.50775248  0.27435107
   0.71502664  0.89945683  0.38816235
   0.05824951  0.22229559  0.04363123
   0.81216000  0.45723857  0.10021581
   0.31835526  0.84048508  0.05328350
   0.79470374  0.58426846  0.16252178
   0.54657506  0.83027006  0.21936612
   0.04959170  0.22509080  0.15992973
   0.50307830  0.98594788  0.27404845
   0.23422239  0.26732054  0.32997884
   0.77322947  0.61597019  0.27442285
   0.24376819  0.35847404  0.38749279
   0.99382356  0.60385850  0.44945526
   0.48294416  0.01283690  0.38691917
   0.78636700  0.60257487  0.04953994
   0.48084355  0.01445451  0.16374495
   0.22065829  0.39221878  0.27568190
   0.92419671  0.79454934  0.38745192
   0.28365620  0.10477383  0.05188334
   0.05411353  0.32170960  0.10756575
   0.00324926  0.48512070  0.16393933
   0.73606541  0.76427444  0.21840406
   0.73622408  0.86868988  0.27507654
   0.49770146  0.09792539  0.33116472
   0.45060611  0.25708934  0.38755839
   0.17430873  0.55030347  0.44751026
   0.99426059  0.49260295  0.04602964
   0.71854292  0.89713748  0.16499944
   0.42836191  0.28830706  0.27571742
   0.15778490  0.67951964  0.38784125
   0.20820076  0.30491231  0.10634255
   0.99435459  0.60375751  0.22004605
   0.67212155  0.05302913  0.33086163
   0.43214501  0.38759235  0.44931836
   0.92523032  0.78745126  0.04950945
   0.23611862  0.37741570  0.05031772
   0.68509964  0.14325857  0.16489957
   0.92234496  0.79510125  0.16468945
   0.38609893  0.54682110  0.27571580
   0.66244051  0.17237894  0.27582003
   0.12800482  0.92107873  0.38853404
   0.36502391  0.57598708  0.38754902
   0.17072758  0.66585763  0.04922452
   0.95670799  0.85445698  0.10731554
   0.43253542  0.27800365  0.05018659
   0.88905408  0.04004390  0.16569197
   0.61289796  0.33488780  0.22042893
   0.16405690  0.67369862  0.16462651
   0.61813972  0.43226478  0.27424568
   0.37624378  0.66651157  0.33057687
   0.87071014  0.07013155  0.27585911
   0.34028387  0.81170735  0.38936946
   0.05750020  0.11339333  0.45081064
   0.60224586  0.45561060  0.38593110
   0.36920254  0.56478453  0.05064808
   0.09328442  0.86240078  0.10708411
   0.12811161  0.92218131  0.16455442
   0.87521596  0.16831755  0.21905115
   0.83000310  0.32589023  0.27401594
   0.55951975  0.60924146  0.33018327
   0.56860216  0.70000693  0.38592703
   0.30449373  0.96843475  0.44716908
   0.95839777  0.98619577  0.52817405
   0.87443112  0.82056175  0.56755344
   0.91671209  0.90323050  0.59631944
   0.83347230  0.73664153  0.64455881
   0.87506525  0.82002155  0.68516127
   0.79173349  0.65336338  0.72193779
   0.83355186  0.73639927  0.76555371
   0.75018431  0.56970660  0.80211515
   0.79124064  0.65343496  0.84305671
   0.70807245  0.48678477  0.89121065
   0.75040295  0.56953875  0.91986460
   0.66798300  0.40199804  0.95780239
   0.08298159  0.23677784  0.52833260
   0.99939562  0.07066713  0.56750299
   0.04170300  0.15323093  0.59633965
   0.95851237  0.98658915  0.64454952
   0.00003743  0.07004585  0.68516867
   0.91677113  0.90330864  0.72192987
   0.95849962  0.98649186  0.76554397
   0.87524794  0.81962754  0.80212828
   0.91627828  0.90337280  0.84304396
   0.83309868  0.73672792  0.89111121
   0.87506639  0.81994596  0.91978128
   0.79251160  0.65249624  0.95842427
   0.45849120  0.98694982  0.52869178
   0.37418514  0.82077219  0.56757117
   0.41671943  0.90322510  0.59623962
   0.33347572  0.73662944  0.64454683
   0.37504071  0.82005760  0.68516950
   0.29179798  0.65326537  0.72193249
   0.33350480  0.73647255  0.76556354
   0.25023563  0.56965304  0.80212729
   0.29134656  0.65328806  0.84305087
   0.20812998  0.48666900  0.89113769
   0.25016074  0.56986542  0.91972867
   0.16686778  0.40260071  0.95854991
   0.20912623  0.48490051  0.52950395
   0.12436583  0.32060800  0.56756574
   0.16670299  0.40324711  0.59632177
   0.08347267  0.23663678  0.64455394
   0.12507860  0.32001698  0.68515959
   0.04181102  0.15326352  0.72193784
   0.08356582  0.23638703  0.76556864
   0.00020814  0.06967648  0.80212232
   0.04131116  0.15332971  0.84304385
   0.95809699  0.98670004  0.89116618
   0.00032660  0.06959158  0.91974657
   0.91766848  0.90195936  0.95868471
   0.58495338  0.23515709  0.52851540
   0.49927836  0.07071560  0.56759089
   0.54168743  0.15326120  0.59629492
   0.45845054  0.98665686  0.64455162
   0.50007512  0.07001429  0.68515314
   0.41678193  0.90329525  0.72193492
   0.45853981  0.98641603  0.76555222
   0.37519491  0.81970393  0.80212782
   0.41626096  0.90339375  0.84304188
   0.33311739  0.73672642  0.89119169
   0.37544448  0.81947559  0.91993470
   0.29134305  0.65346542  0.95794682
   0.33385971  0.73583096  0.52820020
   0.24933081  0.57056314  0.56750099
   0.29171653  0.65321010  0.59629967
   0.20850140  0.48659714  0.64455354
   0.25004969  0.57004503  0.68517138
   0.16673481  0.40335383  0.72193560
   0.20850325  0.48646876  0.76554379
   0.12519796  0.31969088  0.80213116
   0.16623585  0.40343201  0.84305334
   0.08305596  0.23677904  0.89123932
   0.12531384  0.31955942  0.91985115
   0.04209642  0.15254751  0.95835492
   0.70883118  0.48585119  0.52815240
   0.62437161  0.32060107  0.56778839
   0.66672390  0.40320353  0.59629337
   0.58351110  0.23658354  0.64455576
   0.62505804  0.32002467  0.68517314
   0.54175350  0.15332672  0.72192593
   0.58348412  0.23650094  0.76555577
   0.50024895  0.06962851  0.80212085
   0.54126540  0.15339626  0.84305501
   0.45806594  0.98682659  0.89113837
   0.50007379  0.06993142  0.91989532
   0.41675864  0.90311457  0.95806155
   0.83339705  0.73621331  0.52799257
   0.74938907  0.57058846  0.56761337
   0.79165948  0.65326716  0.59632030
   0.70846874  0.48664064  0.64454541
   0.75004796  0.57004019  0.68515643
   0.66683496  0.40322857  0.72193864
   0.70851104  0.48645810  0.76554897
   0.62519341  0.31969747  0.80212655
   0.66628984  0.40333841  0.84304763
   0.58317210  0.23667431  0.89113132
   0.62527809  0.31967692  0.91987814
   0.54300971  0.15169347  0.95806917
   0.36034366  0.19172869  0.10151748
   0.08314807  0.57905376  0.21034223
   0.80394198  0.96879768  0.32296783
   0.52444495  0.35796118  0.43163206
   0.58208733  0.08056850  0.10225589
   0.30405015  0.46885848  0.21050677
   0.02449889  0.86011391  0.32323053
   0.74631713  0.24870445  0.43131122
   0.46954095  0.63384620  0.10223582
   0.18945158  0.02719154  0.20964851
   0.91786649  0.41035372  0.32118651
   0.63990221  0.79737294  0.43092253
   0.68911585  0.52697660  0.09918524
   0.41833329  0.91068653  0.20927310
   0.13998444  0.29929993  0.32178481
   0.86332349  0.68672422  0.43165934
   0.91980747  0.40912087  0.09902462
   0.64057601  0.79763452  0.20886252
   0.36324247  0.18684023  0.32226195
   0.08433253  0.57627688  0.43113757
   0.13646334  0.30695522  0.10179320
   0.86172068  0.68949435  0.21030714
   0.58327673  0.07743764  0.32283755
   0.30409868  0.46823859  0.43098956
   0.80317988  0.97026602  0.10214867
   0.52449389  0.35890035  0.21063343
   0.24482373  0.75070737  0.32295232
   0.96707049  0.14136241  0.43110969
   0.02388751  0.85928398  0.10267644
   0.74640973  0.24804348  0.21056254
   0.46649560  0.63959748  0.32242895
   0.18904800  0.02834803  0.43102821
   0.24579737  0.74918181  0.10204263
   0.96694012  0.13982533  0.20939759
   0.68850831  0.52882264  0.32142946
   0.41873387  0.91006108  0.43071258
unknown system                          
           1
   -17.473393  -26.091220    0.027055
    -6.880832  -24.609880    0.009838
    -0.050199    0.002149   29.400454
   Cl   Na   O 
    36   204    36
Direct configuration=     3
   0.85976714  0.18992471  0.30820154
   0.57373522  0.59080730  0.42054766
   0.43892847  0.37950553  0.04801698
   0.12448203  0.81911007  0.19938883
   0.06997102  0.09487763  0.30822066
   0.80574423  0.46601022  0.41973238
   0.60551192  0.34487317  0.04644704
   0.36745180  0.67853758  0.19947451
   0.30280964  0.97031111  0.30633887
   0.03576274  0.34425116  0.42031525
   0.88108626  0.15874209  0.05022347
   0.57381376  0.59028259  0.19877505
   0.74756529  0.74798870  0.30755754
   0.48485897  0.11538709  0.42129877
   0.53375901  0.84800223  0.30801174
   0.24304273  0.25434795  0.42085876
   0.05322621  0.11863838  0.04695183
   0.80568836  0.46629269  0.19423856
   0.97871908  0.62520471  0.30876185
   0.68277073  0.03823504  0.42154473
   0.54535309  0.83124546  0.04247807
   0.24156411  0.25767590  0.19898259
   0.30333819  0.97038703  0.07947373
   0.03401852  0.34740195  0.19849423
   0.18628092  0.53360961  0.30902854
   0.92581186  0.89789628  0.42131326
   0.72385421  0.78145027  0.05055404
   0.48472941  0.11650658  0.19896925
   0.42124341  0.40438784  0.30918893
   0.12169653  0.82319835  0.42226733
   0.00092331  0.59529315  0.04582687
   0.68414382  0.03651645  0.19960404
   0.62839851  0.31349741  0.30910177
   0.37039615  0.67505769  0.42247906
   0.16459251  0.56411315  0.04739037
   0.92370835  0.90065600  0.19990809
   0.47947303  0.01227322  0.04830902
   0.24355116  0.36268076  0.16469791
   0.94422973  0.76688434  0.27546112
   0.68306869  0.14221063  0.38770854
   0.73145777  0.88259216  0.04964300
   0.51313024  0.07784203  0.10617851
   0.44401249  0.26379738  0.16478854
   0.16821452  0.55905001  0.22043834
   0.17823649  0.65063045  0.27571827
   0.93647076  0.88368604  0.33118503
   0.89134568  0.03940607  0.38854709
   0.61753666  0.32830880  0.44701236
   0.64960714  0.08486401  0.10686531
   0.43978560  0.37864057  0.22053554
   0.10871815  0.84121479  0.33132166
   0.86751558  0.18048957  0.44646681
   0.67991489  0.15368078  0.04922531
   0.36475785  0.57469948  0.16475847
   0.10451804  0.95283692  0.27530746
   0.81526729  0.34936942  0.38490088
   0.60418970  0.45588848  0.04910134
   0.39947547  0.63356984  0.10619670
   0.87269985  0.06001417  0.05108280
   0.33714402  0.81480722  0.16568386
   0.05747644  0.11209003  0.21947030
   0.60674267  0.45043018  0.16364599
   0.06124900  0.20995494  0.27202210
   0.80531161  0.46652626  0.32835900
   0.31428865  0.84979702  0.27517100
   0.79287886  0.58571616  0.38616459
   0.54533438  0.82974128  0.44588276
   0.04531726  0.23038389  0.38425803
   0.81129893  0.34517287  0.04684501
   0.54964758  0.62161551  0.10752477
   0.12436415  0.93091006  0.04968394
   0.56236579  0.70810925  0.16037351
   0.30505160  0.96737342  0.21639851
   0.81296509  0.35149572  0.16208468
   0.28972791  0.09205652  0.27381737
   0.04156083  0.33755533  0.32919996
   0.54495822  0.73053844  0.27297430
   0.00700376  0.48070578  0.38641945
   0.73888717  0.75824041  0.44628367
   0.27150089  0.11936807  0.38721251
   0.55509191  0.71151363  0.04674022
   0.27225648  0.12062149  0.16427528
   0.98910365  0.50704379  0.27425786
   0.71716189  0.89678889  0.38819321
   0.05711206  0.22478131  0.04291898
   0.81154779  0.45816994  0.09989361
   0.32090301  0.83743309  0.05255762
   0.79454598  0.58426668  0.16232422
   0.54687908  0.83005771  0.21944368
   0.04980319  0.22503799  0.15985716
   0.50233425  0.98675494  0.27409238
   0.23391803  0.26759560  0.32980299
   0.77391736  0.61528374  0.27447740
   0.24177342  0.36087307  0.38743583
   0.99708145  0.60115552  0.44690809
   0.48509514  0.01037448  0.38677202
   0.78801436  0.59913024  0.05031169
   0.48100889  0.01440154  0.16349624
   0.22143638  0.39132968  0.27574833
   0.92636298  0.79208155  0.38741907
   0.28128975  0.10831037  0.05194093
   0.05442962  0.32134587  0.10749685
   0.00308544  0.48512848  0.16394310
   0.73560919  0.76468859  0.21842099
   0.73563802  0.86929487  0.27494973
   0.49814971  0.09762587  0.33104555
   0.44825318  0.25992301  0.38770218
   0.17149266  0.55525342  0.44072348
   0.99626515  0.49032698  0.04539126
   0.71873425  0.89710661  0.16503198
   0.42907650  0.28762745  0.27559981
   0.15999578  0.67662748  0.38786535
   0.20818699  0.30461242  0.10598753
   0.99479416  0.60332068  0.22007645
   0.67166553  0.05348945  0.33067771
   0.42722667  0.39269473  0.44538488
   0.92300731  0.79048088  0.04887459
   0.23990408  0.37386747  0.05056989
   0.68496266  0.14314057  0.16459209
   0.92236640  0.79531399  0.16440547
   0.38540767  0.54744833  0.27569267
   0.66318419  0.17148917  0.27586798
   0.12499111  0.92449833  0.38843452
   0.36739406  0.57294743  0.38753337
   0.16927180  0.66779994  0.04848149
   0.95715116  0.85425173  0.10687492
   0.43140958  0.27898619  0.05138836
   0.88895895  0.04007162  0.16567627
   0.61251355  0.33508563  0.22044420
   0.16399479  0.67374381  0.16460756
   0.61761185  0.43281687  0.27415246
   0.37675005  0.66609573  0.33015500
   0.87142852  0.06930711  0.27576275
   0.33741865  0.81550803  0.38936392
   0.05637181  0.11490086  0.44918994
   0.60524990  0.45199881  0.38600626
   0.36920514  0.56509287  0.05246009
   0.09310110  0.86210078  0.10666297
   0.12779349  0.92225797  0.16431095
   0.87570161  0.16780940  0.21902238
   0.82934646  0.32665509  0.27402859
   0.55918456  0.60955621  0.32999965
   0.56630241  0.70288113  0.38585260
   0.30792063  0.96445922  0.44461396
   0.95702035  0.98714050  0.52577696
   0.87470446  0.82029177  0.56724736
   0.91686042  0.90307281  0.59657507
   0.83335243  0.73678069  0.64457710
   0.87508914  0.81997407  0.68519223
   0.79165112  0.65349005  0.72203802
   0.83358274  0.73630263  0.76555841
   0.75005697  0.56981763  0.80205888
   0.79121198  0.65352571  0.84285684
   0.70786230  0.48703530  0.89135489
   0.75091743  0.56897108  0.92020976
   0.67039258  0.40037946  0.95474235
   0.08036065  0.23946284  0.52641470
   0.99956343  0.07071241  0.56704445
   0.04182423  0.15307406  0.59665625
   0.95851231  0.98657155  0.64453974
  -0.00002155  0.07007028  0.68522206
   0.91680109  0.90327187  0.72200616
   0.95837459  0.98667202  0.76551919
   0.87531038  0.81950291  0.80211166
   0.91636183  0.90327785  0.84280543
   0.83296699  0.73680819  0.89095477
   0.87457527  0.82059509  0.91987456
   0.79350987  0.65236785  0.95724470
   0.45739661  0.99015807  0.52785973
   0.37372307  0.82112981  0.56731884
   0.41689022  0.90305055  0.59625375
   0.33336627  0.73673195  0.64452888
   0.37499169  0.82011721  0.68522534
   0.29190820  0.65309896  0.72201667
   0.33339531  0.73659463  0.76559796
   0.25026139  0.56960462  0.80210768
   0.29163422  0.65293978  0.84283320
   0.20809152  0.48657327  0.89106122
   0.24995214  0.57027384  0.91966275
   0.16593755  0.40277836  0.95775059
   0.20991789  0.48197643  0.53112786
   0.12444397  0.32047564  0.56729680
   0.16682419  0.40313900  0.59658432
   0.08335417  0.23676118  0.64455734
   0.12514268  0.31995552  0.68518542
   0.04196057  0.15309131  0.72203820
   0.08363862  0.23625344  0.76561848
   0.00015194  0.06969758  0.80208766
   0.04149322  0.15310549  0.84280517
   0.95795991  0.98669684  0.89117582
   0.00061310  0.06918106  0.91973470
   0.91913234  0.90022454  0.95829254
   0.58822834  0.23300809  0.52714969
   0.49909490  0.07090512  0.56739810
   0.54176209  0.15319522  0.59647640
   0.45826577  0.98684138  0.64454809
   0.50012864  0.06994502  0.68515950
   0.41684443  0.90321791  0.72202646
   0.45853475  0.98636929  0.76555243
   0.37509931  0.81980698  0.80210984
   0.41629301  0.90336094  0.84279720
   0.33304159  0.73680253  0.89127851
   0.37608260  0.81871953  0.92049173
   0.28884860  0.65622663  0.95532403
   0.33386373  0.73568770  0.52588181
   0.24930379  0.57029605  0.56703650
   0.29187820  0.65299105  0.59649551
   0.20846834  0.48660374  0.64455586
   0.25002721  0.57006756  0.68523293
   0.16665618  0.40345219  0.72202921
   0.20838886  0.48657997  0.76551850
   0.12511133  0.31975506  0.80212333
   0.16619270  0.40351403  0.84284323
   0.08279635  0.23701225  0.89147032
   0.12556160  0.31905260  0.92015570
   0.04185154  0.15256756  0.95696616
   0.70875009  0.48576794  0.52568928
   0.62446600  0.32044925  0.56819290
   0.66690768  0.40296471  0.59647011