 268 268   0   0
  0.2565189E+02  0.1259686E-08  0.1781465E-08  0.4332409E-08  0.5000000E-15
  1.000000000000000E-004
  CAR 
 unknown system                          
      7.18532729    -16.10683294  301      1.57202352      1.00000000
    -16.107  0.0000E+00  0.0000E+00
    -16.029  0.0000E+00  0.0000E+00
    -15.952  0.0000E+00  0.0000E+00
    -15.874  0.0000E+00  0.0000E+00
    -15.796  0.0000E+00  0.0000E+00
    -15.719  0.0000E+00  0.0000E+00
    -15.641  0.0000E+00  0.0000E+00
    -15.563  0.3651E-11  0.2835E-12
    -15.486  0.7085E-08  0.5503E-09
    -15.408  0.4237E-05  0.3295E-06
    -15.330  0.7903E-03  0.6169E-04
    -15.253  0.4698E-01  0.3709E-02
    -15.175  0.9299E+00  0.7590E-01
    -15.098  0.6834E+01  0.6065E+00
    -15.020  0.2506E+02  0.2552E+01
    -14.942  0.7296E+02  0.8216E+01
    -14.865  0.1742E+03  0.2174E+02
    -14.787  0.2648E+03  0.4230E+02
    -14.709  0.2539E+03  0.6201E+02
    -14.632  0.2327E+03  0.8008E+02
    -14.554  0.2700E+03  0.1010E+03
    -14.476  0.2340E+03  0.1192E+03
    -14.399  0.9642E+02  0.1267E+03
    -14.321  0.1577E+02  0.1279E+03
    -14.243  0.9551E+00  0.1280E+03
    -14.166  0.2070E-01  0.1280E+03
    -14.088  0.1567E-03  0.1280E+03
    -14.011  0.4043E-06  0.1280E+03
    -13.933  0.3469E-09  0.1280E+03
    -13.855  0.9152E-13  0.1280E+03
    -13.778  0.0000E+00  0.1280E+03
    -13.700  0.0000E+00  0.1280E+03
    -13.622  0.0000E+00  0.1280E+03
    -13.545  0.0000E+00  0.1280E+03
    -13.467  0.0000E+00  0.1280E+03
    -13.389  0.0000E+00  0.1280E+03
    -13.312  0.0000E+00  0.1280E+03
    -13.234  0.0000E+00  0.1280E+03
    -13.156  0.0000E+00  0.1280E+03
    -13.079  0.0000E+00  0.1280E+03
    -13.001  0.0000E+00  0.1280E+03
    -12.924  0.0000E+00  0.1280E+03
    -12.846  0.0000E+00  0.1280E+03
    -12.768  0.0000E+00  0.1280E+03
    -12.691  0.0000E+00  0.1280E+03
    -12.613  0.0000E+00  0.1280E+03
    -12.535  0.0000E+00  0.1280E+03
    -12.458  0.0000E+00  0.1280E+03
    -12.380  0.0000E+00  0.1280E+03
    -12.302  0.0000E+00  0.1280E+03
    -12.225  0.0000E+00  0.1280E+03
    -12.147  0.0000E+00  0.1280E+03
    -12.070  0.0000E+00  0.1280E+03
    -11.992  0.0000E+00  0.1280E+03
    -11.914  0.0000E+00  0.1280E+03
    -11.837  0.0000E+00  0.1280E+03
    -11.759  0.0000E+00  0.1280E+03
    -11.681  0.0000E+00  0.1280E+03
    -11.604  0.0000E+00  0.1280E+03
    -11.526  0.0000E+00  0.1280E+03
    -11.448  0.0000E+00  0.1280E+03
    -11.371  0.0000E+00  0.1280E+03
    -11.293  0.0000E+00  0.1280E+03
    -11.215  0.0000E+00  0.1280E+03
    -11.138  0.0000E+00  0.1280E+03
    -11.060  0.0000E+00  0.1280E+03
    -10.983  0.0000E+00  0.1280E+03
    -10.905  0.0000E+00  0.1280E+03
    -10.827  0.0000E+00  0.1280E+03
    -10.750  0.0000E+00  0.1280E+03
    -10.672  0.0000E+00  0.1280E+03
    -10.594  0.0000E+00  0.1280E+03
    -10.517  0.0000E+00  0.1280E+03
    -10.439  0.0000E+00  0.1280E+03
    -10.361  0.0000E+00  0.1280E+03
    -10.284  0.0000E+00  0.1280E+03
    -10.206  0.0000E+00  0.1280E+03
    -10.129  0.0000E+00  0.1280E+03
    -10.051  0.0000E+00  0.1280E+03
     -9.973  0.0000E+00  0.1280E+03
     -9.896  0.0000E+00  0.1280E+03
     -9.818  0.0000E+00  0.1280E+03
     -9.740  0.0000E+00  0.1280E+03
     -9.663  0.0000E+00  0.1280E+03
     -9.585  0.0000E+00  0.1280E+03
     -9.507  0.0000E+00  0.1280E+03
     -9.430  0.0000E+00  0.1280E+03
     -9.352  0.0000E+00  0.1280E+03
     -9.274  0.0000E+00  0.1280E+03
     -9.197  0.0000E+00  0.1280E+03
     -9.119  0.0000E+00  0.1280E+03
     -9.042  0.0000E+00  0.1280E+03
     -8.964  0.0000E+00  0.1280E+03
     -8.886  0.0000E+00  0.1280E+03
     -8.809  0.0000E+00  0.1280E+03
     -8.731  0.0000E+00  0.1280E+03
     -8.653  0.0000E+00  0.1280E+03
     -8.576  0.0000E+00  0.1280E+03
     -8.498  0.0000E+00  0.1280E+03
     -8.420  0.0000E+00  0.1280E+03
     -8.343  0.0000E+00  0.1280E+03
     -8.265  0.0000E+00  0.1280E+03
     -8.187  0.0000E+00  0.1280E+03
     -8.110  0.0000E+00  0.1280E+03
     -8.032  0.0000E+00  0.1280E+03
     -7.955  0.0000E+00  0.1280E+03
     -7.877  0.0000E+00  0.1280E+03
     -7.799  0.0000E+00  0.1280E+03
     -7.722  0.0000E+00  0.1280E+03
     -7.644  0.0000E+00  0.1280E+03
     -7.566  0.0000E+00  0.1280E+03
     -7.489  0.0000E+00  0.1280E+03
     -7.411  0.0000E+00  0.1280E+03
     -7.333  0.0000E+00  0.1280E+03
     -7.256  0.0000E+00  0.1280E+03
     -7.178  0.0000E+00  0.1280E+03
     -7.101  0.0000E+00  0.1280E+03
     -7.023  0.0000E+00  0.1280E+03
     -6.945  0.0000E+00  0.1280E+03
     -6.868  0.0000E+00  0.1280E+03
     -6.790  0.0000E+00  0.1280E+03
     -6.712  0.0000E+00  0.1280E+03
     -6.635  0.0000E+00  0.1280E+03
     -6.557  0.0000E+00  0.1280E+03
     -6.479  0.0000E+00  0.1280E+03
     -6.402  0.0000E+00  0.1280E+03
     -6.324  0.0000E+00  0.1280E+03
     -6.246  0.0000E+00  0.1280E+03
     -6.169  0.0000E+00  0.1280E+03
     -6.091  0.0000E+00  0.1280E+03
     -6.014  0.0000E+00  0.1280E+03
     -5.936  0.0000E+00  0.1280E+03
     -5.858  0.0000E+00  0.1280E+03
     -5.781  0.0000E+00  0.1280E+03
     -5.703  0.0000E+00  0.1280E+03
     -5.625  0.0000E+00  0.1280E+03
     -5.548  0.0000E+00  0.1280E+03
     -5.470  0.0000E+00  0.1280E+03
     -5.392  0.0000E+00  0.1280E+03
     -5.315  0.0000E+00  0.1280E+03
     -5.237  0.0000E+00  0.1280E+03
     -5.160  0.0000E+00  0.1280E+03
     -5.082  0.0000E+00  0.1280E+03
     -5.004  0.0000E+00  0.1280E+03
     -4.927  0.0000E+00  0.1280E+03
     -4.849  0.0000E+00  0.1280E+03
     -4.771  0.0000E+00  0.1280E+03
     -4.694  0.0000E+00  0.1280E+03
     -4.616  0.0000E+00  0.1280E+03
     -4.538  0.0000E+00  0.1280E+03
     -4.461  0.0000E+00  0.1280E+03
     -4.383  0.9316E-12  0.1280E+03
     -4.305  0.2197E-08  0.1280E+03
     -4.228  0.1607E-05  0.1280E+03
     -4.150  0.3706E-03  0.1280E+03
     -4.073  0.2761E-01  0.1280E+03
     -3.995  0.6969E+00  0.1281E+03
     -3.917  0.6557E+01  0.1286E+03
     -3.840  0.2826E+02  0.1308E+03
     -3.762  0.7599E+02  0.1367E+03
     -3.684  0.1455E+03  0.1480E+03
     -3.607  0.1917E+03  0.1628E+03
     -3.529  0.2045E+03  0.1787E+03
     -3.451  0.2493E+03  0.1981E+03
     -3.374  0.3156E+03  0.2226E+03
     -3.296  0.3029E+03  0.2461E+03
     -3.219  0.2211E+03  0.2633E+03
     -3.141  0.1639E+03  0.2760E+03
     -3.063  0.1786E+03  0.2898E+03
     -2.986  0.1976E+03  0.3052E+03
     -2.908  0.1365E+03  0.3158E+03
     -2.830  0.4679E+02  0.3194E+03
     -2.753  0.6982E+01  0.3200E+03
     -2.675  0.4149E+00  0.3200E+03
     -2.597  0.9144E-02  0.3200E+03
     -2.520  0.7048E-04  0.3200E+03
     -2.442  0.1812E-06  0.3200E+03
     -2.364  0.1502E-09  0.3200E+03
     -2.287  0.3718E-13  0.3200E+03
     -2.209  0.0000E+00  0.3200E+03
     -2.132  0.3167E-12  0.3200E+03
     -2.054  0.7888E-09  0.3200E+03
     -1.976  0.6039E-06  0.3200E+03
     -1.899  0.1433E-03  0.3200E+03
     -1.821  0.1066E-01  0.3200E+03
     -1.743  0.2534E+00  0.3200E+03
     -1.666  0.1981E+01  0.3202E+03
     -1.588  0.5503E+01  0.3206E+03
     -1.510  0.7141E+01  0.3212E+03
     -1.433  0.6636E+01  0.3217E+03
     -1.355  0.4202E+01  0.3220E+03
     -1.277  0.4783E+01  0.3224E+03
     -1.200  0.1255E+02  0.3233E+03
     -1.122  0.2741E+02  0.3255E+03
     -1.045  0.4329E+02  0.3288E+03
     -0.967  0.5509E+02  0.3331E+03
     -0.889  0.7849E+02  0.3392E+03
     -0.812  0.1134E+03  0.3480E+03
     -0.734  0.1435E+03  0.3591E+03
     -0.656  0.2455E+03  0.3782E+03
     -0.579  0.3658E+03  0.4066E+03
     -0.501  0.3665E+03  0.4351E+03
     -0.423  0.3250E+03  0.4603E+03
     -0.346  0.3334E+03  0.4862E+03
     -0.268  0.3302E+03  0.5118E+03
     -0.191  0.2489E+03  0.5311E+03
     -0.113  0.1329E+03  0.5414E+03
     -0.035  0.4019E+02  0.5446E+03
      0.042  0.6033E+01  0.5450E+03
      0.120  0.8520E+01  0.5457E+03
      0.198  0.3304E+02  0.5483E+03
      0.275  0.5435E+02  0.5525E+03
      0.353  0.4777E+02  0.5562E+03
      0.431  0.3245E+02  0.5587E+03
      0.508  0.2647E+02  0.5608E+03
      0.586  0.2227E+02  0.5625E+03
      0.664  0.3791E+02  0.5654E+03
      0.741  0.7636E+02  0.5714E+03
      0.819  0.9361E+02  0.5786E+03
      0.896  0.7315E+02  0.5843E+03
      0.974  0.5649E+02  0.5887E+03
      1.052  0.4291E+02  0.5920E+03
      1.129  0.5508E+02  0.5963E+03
      1.207  0.7785E+02  0.6024E+03
      1.285  0.6060E+02  0.6071E+03
      1.362  0.3621E+02  0.6099E+03
      1.440  0.3078E+02  0.6123E+03
      1.518  0.5220E+02  0.6163E+03
      1.595  0.6474E+02  0.6213E+03
      1.673  0.3434E+02  0.6240E+03
      1.750  0.2166E+02  0.6257E+03
      1.828  0.2620E+02  0.6277E+03
      1.906  0.4036E+02  0.6309E+03
      1.983  0.7165E+02  0.6364E+03
      2.061  0.7003E+02  0.6419E+03
      2.139  0.4759E+02  0.6456E+03
      2.216  0.3748E+02  0.6485E+03
      2.294  0.4018E+02  0.6516E+03
      2.372  0.5855E+02  0.6561E+03
      2.449  0.8472E+02  0.6627E+03
      2.527  0.1004E+03  0.6705E+03
      2.605  0.8579E+02  0.6772E+03
      2.682  0.5797E+02  0.6817E+03
      2.760  0.4863E+02  0.6854E+03
      2.837  0.5740E+02  0.6899E+03
      2.915  0.6604E+02  0.6950E+03
      2.993  0.6708E+02  0.7002E+03
      3.070  0.7206E+02  0.7058E+03
      3.148  0.9412E+02  0.7131E+03
      3.226  0.1184E+03  0.7223E+03
      3.303  0.1173E+03  0.7314E+03
      3.381  0.9114E+02  0.7385E+03
      3.459  0.6431E+02  0.7435E+03
      3.536  0.6205E+02  0.7483E+03
      3.614  0.6628E+02  0.7535E+03
      3.692  0.8521E+02  0.7601E+03
      3.769  0.1295E+03  0.7701E+03
      3.847  0.1394E+03  0.7810E+03
      3.924  0.1011E+03  0.7888E+03
      4.002  0.6818E+02  0.7941E+03
      4.080  0.5068E+02  0.7980E+03
      4.157  0.4771E+02  0.8017E+03
      4.235  0.6647E+02  0.8069E+03
      4.313  0.8471E+02  0.8135E+03
      4.390  0.9778E+02  0.8211E+03
      4.468  0.1086E+03  0.8295E+03
      4.546  0.9553E+02  0.8369E+03
      4.623  0.6331E+02  0.8418E+03
      4.701  0.3939E+02  0.8449E+03
      4.778  0.3046E+02  0.8473E+03
      4.856  0.2622E+02  0.8493E+03
      4.934  0.1626E+02  0.8506E+03
      5.011  0.1087E+02  0.8514E+03
      5.089  0.2169E+02  0.8531E+03
      5.167  0.3754E+02  0.8560E+03
      5.244  0.4462E+02  0.8595E+03
      5.322  0.4786E+02  0.8632E+03
      5.400  0.5227E+02  0.8672E+03
      5.477  0.5627E+02  0.8716E+03
      5.555  0.6453E+02  0.8766E+03
      5.633  0.6864E+02  0.8819E+03
      5.710  0.6239E+02  0.8868E+03
      5.788  0.4983E+02  0.8907E+03
      5.865  0.3444E+02  0.8933E+03
      5.943  0.1692E+02  0.8946E+03
      6.021  0.4979E+01  0.8950E+03
      6.098  0.3984E+01  0.8953E+03
      6.176  0.5331E+01  0.8958E+03
      6.254  0.2656E+01  0.8960E+03
      6.331  0.4417E+00  0.8960E+03
      6.409  0.2402E-01  0.8960E+03
      6.487  0.4183E-03  0.8960E+03
      6.564  0.2293E-05  0.8960E+03
      6.642  0.3903E-08  0.8960E+03
      6.719  0.2045E-11  0.8960E+03
      6.797  0.0000E+00  0.8960E+03
      6.875  0.0000E+00  0.8960E+03
      6.952  0.0000E+00  0.8960E+03
      7.030  0.0000E+00  0.8960E+03
      7.108  0.0000E+00  0.8960E+03
      7.185  0.0000E+00  0.8960E+03
