 vasp.6.2.1 16May21 (build Dec 23 2021 00:35:04) complex                        
  
 executed on             LinuxIFC date 2023.03.28  00:28:14
 running on  120 total cores
 distrk:  each k-point on  120 cores,    1 groups
 distr:  one band on NCORE=  15 cores,    8 groups


--------------------------------------------------------------------------------------------------------


 INCAR:
   AMIN = 0.010000
   ENCUT = 400.000000
   KSPACING = 0.500000
   SIGMA = 0.100000
   EDIFF = 1.00e-08
   EDIFFG = -1.00e-02
   ALGO = Fast
   GGA = PE
   PREC = Normal
   IBRION = -1
   ISIF = 3
   ISMEAR = 0
   ISPIN = 0
   LMAXMIX = 6
   NELM = 150
   NPAR = 8
   NSW = 0
   NWRITE = 1
   KGAMMA = .TRUE.
   LASPH = .TRUE.
   LCHARG = .FALSE.
   LWAVE = .FALSE.
   LREAL = AUTO

 POTCAR:    PAW_PBE Cl 06Sep2000                  
 POTCAR:    PAW_PBE Na 08Apr2002                  
 POTCAR:    PAW_PBE O 08Apr2002                   
 POTCAR:    PAW_PBE Cl 06Sep2000                  
  local pseudopotential read in
  partial core-charges read in
  partial kinetic energy density read in
  atomic valenz-charges read in
  non local Contribution for L=           0  read in
    real space projection operators read in
  non local Contribution for L=           0  read in
    real space projection operators read in
  non local Contribution for L=           1  read in
    real space projection operators read in
  non local Contribution for L=           1  read in
    real space projection operators read in
    PAW grid and wavefunctions read in
 
   number of l-projection  operators is LMAX  =           4
   number of lm-projection operators is LMMAX =           8
 
 POTCAR:    PAW_PBE Na 08Apr2002                  
  local pseudopotential read in
  partial core-charges read in
  partial kinetic energy density read in
  atomic valenz-charges read in
  non local Contribution for L=           0  read in
    real space projection operators read in
  non local Contribution for L=           0  read in
    real space projection operators read in
  non local Contribution for L=           1  read in
    real space projection operators read in
    PAW grid and wavefunctions read in
 
   number of l-projection  operators is LMAX  =           3
   number of lm-projection operators is LMMAX =           5
 
 POTCAR:    PAW_PBE O 08Apr2002                   
  local pseudopotential read in
  partial core-charges read in
  partial kinetic energy density read in
  kinetic energy density of atom read in
  atomic valenz-charges read in
  non local Contribution for L=           0  read in
    real space projection operators read in
  non local Contribution for L=           0  read in
    real space projection operators read in
  non local Contribution for L=           1  read in
    real space projection operators read in
  non local Contribution for L=           1  read in
    real space projection operators read in
    PAW grid and wavefunctions read in
 
   number of l-projection  operators is LMAX  =           4
   number of lm-projection operators is LMMAX =           8
 
 Optimization of the real space projectors (new method)

 maximal supplied QI-value         = 19.84
 optimisation between [QCUT,QGAM] = [ 10.12, 20.44] = [ 28.68,116.96] Ry 
 Optimized for a Real-space Cutoff    1.23 Angstroem

   l    n(q)    QCUT    max X(q) W(low)/X(q) W(high)/X(q)  e(spline) 
   0      7    10.119   168.010    0.54E-04    0.25E-03    0.48E-07
   0      7    10.119   164.674    0.53E-04    0.25E-03    0.47E-07
   1      7    10.119    69.222    0.45E-03    0.63E-03    0.13E-06
   1      7    10.119    56.786    0.45E-03    0.62E-03    0.13E-06
 Optimization of the real space projectors (new method)

 maximal supplied QI-value         = 17.01
 optimisation between [QCUT,QGAM] = [ 10.20, 20.41] = [ 29.16,116.64] Ry 
 Optimized for a Real-space Cutoff    1.19 Angstroem

   l    n(q)    QCUT    max X(q) W(low)/X(q) W(high)/X(q)  e(spline) 
   0      7    10.205    45.123    0.22E-03    0.82E-03    0.11E-06
   0      7    10.205    12.364    0.17E-03    0.61E-03    0.75E-07
   1      7    10.205     8.302    0.37E-03    0.15E-03    0.27E-07
 Optimization of the real space projectors (new method)

 maximal supplied QI-value         = 24.76
 optimisation between [QCUT,QGAM] = [ 10.15, 20.30] = [ 28.85,115.39] Ry 
 Optimized for a Real-space Cutoff    1.38 Angstroem

   l    n(q)    QCUT    max X(q) W(low)/X(q) W(high)/X(q)  e(spline) 
   0      8    10.150    20.381    0.22E-03    0.32E-03    0.29E-06
   0      8    10.150    15.268    0.23E-03    0.35E-03    0.30E-06
   1      8    10.150     5.964    0.46E-03    0.53E-03    0.21E-06
   1      8    10.150     5.382    0.38E-03    0.45E-03    0.19E-06
  PAW_PBE Cl 06Sep2000                  :
 energy of atom  1       EATOM= -409.7259
 kinetic energy error for atom=    0.0089 (will be added to EATOM!!)
  PAW_PBE Na 08Apr2002                  :
 energy of atom  2       EATOM=   -5.1581
 kinetic energy error for atom=    0.0001 (will be added to EATOM!!)
  PAW_PBE O 08Apr2002                   :
 energy of atom  3       EATOM= -432.3788
 kinetic energy error for atom=    0.1156 (will be added to EATOM!!)
 
 
 POSCAR: Cl Na  O
  positions in cartesian coordinates
  No initial velocities read in
 exchange correlation table for  LEXCH =        8
   RHO(1)=    0.500       N(1)  =     2000
   RHO(2)=  100.500       N(2)  =     4000
 


--------------------------------------------------------------------------------------------------------


 ion  position               nearest neighbor table
   1  0.201  0.028  0.081-  81 3.15  33 3.15  66 3.15  90 3.15  67 3.17  34 3.17  89 3.17  77 3.17
                            92 3.18  78 3.18  36 3.21  70 3.21
   2  0.201  0.028  0.186-  93 3.15  69 3.15  35 3.15  83 3.15  92 3.16  78 3.16  73 3.17  38 3.17
                            95 3.18  79 3.18  70 3.18  36 3.18
   3  0.201  0.028  0.290-  96 3.15  85 3.15  72 3.15  37 3.15  38 3.16  73 3.16  76 3.17  40 3.17
                            95 3.17  79 3.17  98 3.19  80 3.19
   4  0.201  0.028  0.393-  76 3.11  40 3.11  98 3.14  80 3.14  87 3.15  99 3.15  39 3.15  75 3.15

   5  0.201  0.278  0.081-  33 3.15  42 3.15  90 3.15 102 3.15  41 3.17 101 3.17  34 3.17  43 3.17
                            36 3.18  46 3.18  44 3.21 104 3.21
   6  0.201  0.278  0.186-  93 3.15 105 3.15  45 3.15  35 3.15  46 3.15  36 3.15 107 3.17  47 3.17
                            49 3.18  38 3.18  44 3.19 104 3.19
   7  0.201  0.278  0.290-  96 3.15 108 3.15  37 3.15  48 3.15 107 3.16  47 3.16 110 3.17  50 3.17
                            49 3.17  38 3.17  52 3.19  40 3.19
   8  0.201  0.278  0.393- 130 2.66 110 3.12  50 3.12  40 3.14  52 3.14 111 3.15  99 3.15  51 3.15
                            39 3.15
   9  0.201  0.528  0.081- 114 3.15 102 3.15  54 3.15  42 3.15  43 3.17  55 3.17 113 3.17  53 3.17
                            56 3.18 116 3.18  46 3.21  58 3.21
  10  0.201  0.528  0.186-  57 3.15 105 3.15 117 3.15  45 3.15  56 3.16 116 3.16  49 3.17  61 3.17
                           119 3.18  59 3.18  46 3.18  58 3.18
  11  0.201  0.528  0.290- 108 3.15 120 3.15  60 3.15  48 3.15  61 3.16  49 3.16  52 3.17  64 3.17
                           119 3.17  59 3.17 122 3.19  62 3.19
  12  0.201  0.528  0.393- 154 2.50  64 3.11  52 3.11 122 3.14  62 3.14 111 3.15 123 3.15  63 3.15
                            51 3.15
  13  0.201  0.778  0.081-  54 3.15  66 3.15 114 3.15  81 3.15  65 3.17 125 3.17  55 3.17  67 3.17
                            58 3.18  70 3.18  68 3.21 126 3.21
  14  0.201  0.778  0.186-  57 3.15 117 3.15  83 3.15  69 3.15  70 3.15  58 3.15 127 3.17  71 3.17
                            73 3.18  61 3.18 126 3.19  68 3.19
  15  0.201  0.778  0.290-  60 3.15  72 3.15 120 3.15  85 3.15  71 3.16 127 3.16  74 3.17 128 3.17
                            61 3.17  73 3.17  64 3.19  76 3.19
  16  0.201  0.778  0.393- 128 3.12  74 3.12 190 3.13  64 3.14  76 3.14  87 3.15 123 3.15  75 3.15
                            63 3.15
  17  0.701  0.028  0.081-  42 3.15  33 3.15  81 3.15 114 3.15 115 3.17  82 3.17  41 3.17 125 3.17
                           126 3.18  44 3.18  84 3.21 118 3.21
  18  0.701  0.028  0.186-  83 3.15  45 3.15  35 3.15 117 3.15 126 3.16  44 3.16 121 3.17  86 3.17
                            47 3.18 127 3.18  84 3.18 118 3.18
  19  0.701  0.028  0.290-  48 3.15  37 3.15  85 3.15 120 3.15  86 3.16 121 3.16 124 3.17  88 3.17
                           127 3.17  47 3.17  50 3.19 128 3.19
  20  0.701  0.028  0.393- 226 3.04 124 3.11  88 3.11  50 3.14 128 3.14  39 3.15  51 3.15  87 3.15
                           123 3.15
  21  0.701  0.278  0.081-  81 3.15  90 3.15  42 3.15  54 3.15  89 3.17  53 3.17  82 3.17  91 3.17
                            84 3.18  94 3.18  92 3.21  56 3.21
  22  0.701  0.278  0.186-  83 3.15  45 3.15  57 3.15  93 3.15  94 3.15  84 3.15  59 3.17  95 3.17
                            97 3.18  86 3.18  56 3.19  92 3.19
  23  0.701  0.278  0.290-  85 3.15  96 3.15  48 3.15  60 3.15  95 3.16  59 3.16  98 3.17  62 3.17
                            86 3.17  97 3.17  88 3.19 100 3.19
  24  0.701  0.278  0.393- 166 2.89  62 3.12  98 3.12  88 3.14 100 3.14  63 3.15  51 3.15  99 3.15
                            87 3.15
  25  0.701  0.528  0.081- 102 3.15  54 3.15  90 3.15  66 3.15  91 3.17 103 3.17  65 3.17 101 3.17
                            68 3.18 104 3.18 106 3.21  94 3.21
  26  0.701  0.528  0.186-  69 3.15 105 3.15  93 3.15  57 3.15  68 3.16 104 3.16  97 3.17 109 3.17
                            71 3.18 107 3.18  94 3.18 106 3.18
  27  0.701  0.528  0.290-  60 3.15  72 3.15 108 3.15  96 3.15 109 3.16  97 3.16 100 3.17 112 3.17
                            71 3.17 107 3.17  74 3.19 110 3.19
  28  0.701  0.528  0.393- 178 3.07 100 3.11 112 3.11  74 3.14 110 3.14  63 3.15  75 3.15 111 3.15
                            99 3.15
  29  0.701  0.778  0.081- 102 3.15 114 3.15  66 3.15  33 3.15 113 3.17  77 3.17 103 3.17 115 3.17
                           106 3.18 118 3.18 116 3.21  78 3.21
  30  0.701  0.778  0.186-  35 3.15  69 3.15 117 3.15 105 3.15 118 3.15 106 3.15  79 3.17 119 3.17
                           121 3.18 109 3.18  78 3.19 116 3.19
  31  0.701  0.778  0.290- 108 3.15 120 3.15  72 3.15  37 3.15 119 3.16  79 3.16 122 3.17  80 3.17
                           109 3.17 121 3.17 112 3.19 124 3.19
  32  0.701  0.778  0.393- 214 2.91  80 3.12 122 3.12 112 3.14 124 3.14  39 3.15  75 3.15 123 3.15
                           111 3.15
  33  0.451  0.028  0.082- 237 2.24 238 2.26   5 3.15   1 3.15  17 3.15  29 3.15  78 3.17  44 3.17
                            36 3.17 118 3.17  41 3.19  77 3.19  34 3.19 115 3.19
  34  0.201  0.153  0.029- 257 2.23 237 2.23 139 3.07  89 3.15  77 3.15 101 3.15  41 3.15   1 3.17
                             5 3.17  90 3.19  33 3.19 151 4.05 211 4.08
  35  0.451  0.028  0.186- 239 2.26 238 2.26  30 3.15  18 3.15   2 3.15   6 3.15  79 3.17  47 3.17
                           118 3.17  36 3.17 121 3.17  38 3.17  44 3.18  78 3.18
  36  0.201  0.154  0.134- 258 2.23 238 2.23  78 3.15  92 3.15  44 3.15 104 3.15   6 3.15  93 3.17
                            90 3.17  35 3.17  33 3.17   5 3.18   2 3.18   1 3.21
  37  0.451  0.028  0.290- 239 2.26 240 2.26  19 3.15   3 3.15   7 3.15  31 3.15  79 3.17  47 3.17
                            38 3.17 121 3.17  80 3.17  50 3.17 124 3.18  40 3.18
  38  0.201  0.153  0.238- 259 2.23 239 2.23  95 3.15  79 3.15 107 3.15  47 3.15   3 3.16  96 3.17
                             2 3.17  37 3.17   7 3.17  93 3.17  35 3.17   6 3.18
  39  0.451  0.028  0.393- 240 2.22 214 3.11 124 3.14  40 3.14  80 3.14  50 3.14  32 3.15  20 3.15
                             4 3.15   8 3.15 130 3.53
  40  0.201  0.152  0.342- 260 2.23 240 2.23   4 3.11  39 3.14   8 3.14  99 3.14  80 3.15  98 3.15
                            50 3.15 110 3.15   3 3.17  96 3.18  37 3.18   7 3.19
  41  0.451  0.153  0.029- 237 2.23 241 2.23 151 2.81  82 3.15 115 3.15  43 3.15  34 3.15   5 3.17
                            17 3.17  33 3.19  42 3.19 163 3.88
  42  0.451  0.278  0.082- 241 2.24 242 2.26  17 3.15  21 3.15   5 3.15   9 3.15  56 3.17  44 3.17
                            84 3.17  46 3.17  43 3.19  82 3.19  41 3.19  53 3.19
  43  0.202  0.403  0.029- 241 2.23 261 2.23 163 2.53  53 3.15 113 3.15  41 3.15 101 3.15   9 3.17
                             5 3.17  42 3.19 102 3.19
  44  0.454  0.152  0.134- 238 2.23 242 2.23 118 3.15  84 3.15  36 3.15  46 3.15  18 3.16  33 3.17
                            42 3.17  35 3.18  45 3.18  17 3.18   6 3.19   5 3.21
  45  0.451  0.278  0.186- 242 2.26 243 2.26  18 3.15  22 3.15   6 3.15  10 3.15  84 3.17  46 3.17
                            49 3.17  86 3.17  47 3.17  59 3.17  56 3.18  44 3.18
  46  0.201  0.402  0.134- 242 2.23 262 2.23 116 3.15  56 3.15 104 3.15  44 3.15   6 3.15  45 3.17
                            42 3.17 105 3.17 102 3.17   5 3.18  10 3.18   9 3.21
  47  0.451  0.153  0.238- 239 2.23 243 2.23  86 3.15 121 3.15  49 3.15  38 3.15   7 3.16  37 3.17
                             6 3.17  35 3.17  19 3.17  48 3.17  45 3.17  18 3.18
  48  0.451  0.278  0.290- 243 2.26 244 2.26  19 3.15   7 3.15  23 3.15  11 3.15  86 3.17  49 3.17
                            47 3.17  59 3.17  50 3.17  62 3.17  88 3.18  52 3.18
  49  0.202  0.403  0.238- 243 2.23 263 2.23  59 3.15 119 3.15  47 3.15 107 3.15  11 3.16  48 3.17
                            10 3.17   7 3.17 108 3.17  45 3.17 105 3.17   6 3.18
  50  0.450  0.154  0.342- 240 2.23 244 2.23   8 3.12  20 3.14  39 3.14  51 3.14 124 3.15  88 3.15
                            40 3.15  52 3.15   7 3.17  48 3.17  37 3.17  19 3.19
  51  0.451  0.278  0.394- 244 2.22 142 2.56  88 3.14  52 3.14  50 3.14  62 3.14  20 3.15  24 3.15
                             8 3.15  12 3.15
  52  0.201  0.404  0.342- 244 2.23 264 2.23  12 3.11 111 3.14   8 3.14  51 3.14 122 3.15  62 3.15
                           110 3.15  50 3.15  11 3.17  48 3.18 108 3.18   7 3.19
  53  0.452  0.403  0.029- 245 2.23 241 2.23 187 2.64  43 3.15  55 3.15  82 3.15  91 3.15  21 3.17
                             9 3.17  54 3.19  42 3.19 163 4.21
  54  0.451  0.528  0.082- 245 2.24 246 2.26  13 3.15  25 3.15   9 3.15  21 3.15  68 3.17  56 3.17
                            58 3.17  94 3.17  65 3.19  53 3.19  55 3.19  91 3.19
  55  0.201  0.653  0.029- 265 2.23 245 2.23 199 2.78 113 3.15  53 3.15 125 3.15  65 3.15   9 3.17
                            13 3.17 114 3.19  54 3.19
  56  0.449  0.405  0.134- 246 2.23 242 2.23  58 3.15  46 3.15  94 3.15  84 3.15  10 3.16  54 3.17
                            42 3.17  45 3.18  57 3.18   9 3.18  22 3.19  21 3.21
  57  0.451  0.528  0.186- 247 2.26 246 2.26  10 3.15  14 3.15  26 3.15  22 3.15  59 3.17  71 3.17
                            94 3.17  58 3.17  61 3.17  97 3.17  68 3.18  56 3.18
  58  0.201  0.654  0.134- 266 2.23 246 2.23  56 3.15 116 3.15  68 3.15 126 3.15  14 3.15 117 3.17
                           114 3.17  57 3.17  54 3.17  13 3.18  10 3.18   9 3.21
  59  0.452  0.403  0.238- 247 2.23 243 2.23  49 3.15  61 3.15  86 3.15  97 3.15  23 3.16  60 3.17
                            57 3.17  22 3.17  11 3.17  48 3.17  45 3.17  10 3.18
  60  0.451  0.528  0.290- 247 2.26 248 2.26  15 3.15  27 3.15  11 3.15  23 3.15  59 3.17  71 3.17
                            61 3.17  97 3.17  74 3.17  62 3.17 100 3.18  64 3.18
  61  0.201  0.653  0.238- 267 2.23 247 2.23 119 3.15  59 3.15 127 3.15  71 3.15  11 3.16 120 3.17
                            15 3.17  10 3.17  60 3.17 117 3.17  57 3.17  14 3.18
  62  0.453  0.402  0.342- 248 2.23 244 2.23  24 3.12  12 3.14  63 3.14  51 3.14  64 3.15  52 3.15
                           100 3.15  88 3.15  23 3.17  48 3.17  60 3.17  11 3.19
  63  0.451  0.528  0.393- 248 2.22 178 2.81 100 3.14  64 3.14  62 3.14  74 3.14  24 3.15  28 3.15
                            12 3.15  16 3.15 154 3.77
  64  0.201  0.652  0.342- 268 2.23 248 2.23  12 3.11  63 3.14  16 3.14 123 3.14  62 3.15 122 3.15
                            74 3.15 128 3.15  11 3.17 120 3.18  60 3.18  15 3.19
  65  0.451  0.653  0.029- 245 2.23 249 2.23 103 3.15  91 3.15  67 3.15  55 3.15  13 3.17  25 3.17
                            54 3.19  66 3.19 223 3.24 199 3.52
  66  0.451  0.778  0.082- 249 2.24 250 2.26  13 3.15   1 3.15  25 3.15  29 3.15  78 3.17  68 3.17
                           106 3.17  70 3.17  67 3.19 103 3.19  65 3.19  77 3.19
  67  0.202  0.903  0.029- 249 2.23 253 2.23  77 3.15  89 3.15  65 3.15 125 3.15   1 3.17  13 3.17
                            66 3.19  81 3.19 139 3.67 223 3.88 175 3.92 199 4.12
  68  0.454  0.652  0.134- 246 2.23 250 2.23  94 3.15 106 3.15  58 3.15  70 3.15  26 3.16  54 3.17
                            66 3.17  57 3.18  25 3.18  69 3.18  14 3.19  13 3.21
  69  0.451  0.778  0.186- 250 2.26 251 2.26  30 3.15  26 3.15   2 3.15  14 3.15  70 3.17 106 3.17
                            73 3.17 109 3.17  79 3.17  71 3.17  78 3.18  68 3.18
  70  0.201  0.902  0.134- 250 2.23 254 2.23  92 3.15  78 3.15 126 3.15  68 3.15  14 3.15  69 3.17
                            66 3.17  83 3.17  81 3.17  13 3.18   2 3.18   1 3.21
  71  0.451  0.653  0.238- 247 2.23 251 2.23 109 3.15  97 3.15  73 3.15  61 3.15  15 3.16  60 3.17
                            57 3.17  14 3.17  27 3.17  72 3.17  69 3.17  26 3.18
  72  0.451  0.778  0.290- 251 2.26 252 2.26  27 3.15  31 3.15  15 3.15   3 3.15 109 3.17  73 3.17
                            71 3.17  79 3.17  80 3.17  74 3.17 112 3.18  76 3.18
  73  0.202  0.903  0.238- 251 2.23 255 2.23  79 3.15  95 3.15  71 3.15 127 3.15   3 3.16  72 3.17
                            15 3.17   2 3.17  85 3.17  69 3.17  83 3.17  14 3.18
  74  0.450  0.654  0.342- 248 2.23 252 2.23  16 3.12  28 3.14  63 3.14  75 3.14 100 3.15 112 3.15
                            64 3.15  76 3.15  15 3.17  72 3.17  60 3.17  27 3.19
  75  0.451  0.778  0.394- 252 2.22 112 3.14  76 3.14  74 3.14  80 3.14  28 3.15  32 3.15  16 3.15
                             4 3.15 190 3.33 214 3.68 178 4.15
  76  0.201  0.904  0.342- 252 2.23 256 2.23   4 3.11  87 3.14  16 3.14  75 3.14  98 3.15  80 3.15
                           128 3.15  74 3.15   3 3.17  72 3.18  85 3.18  15 3.19
  77  0.452  0.903  0.029- 237 2.23 249 2.23  67 3.15  34 3.15 103 3.15 115 3.15  29 3.17   1 3.17
                            33 3.19  66 3.19 139 3.40 223 3.63
  78  0.449  0.905  0.134- 238 2.23 250 2.23  36 3.15  70 3.15 118 3.15 106 3.15   2 3.16  33 3.17
                            66 3.17  35 3.18  69 3.18   1 3.18  30 3.19  29 3.21
  79  0.452  0.903  0.238- 239 2.23 251 2.23  73 3.15  38 3.15 109 3.15 121 3.15  31 3.16  37 3.17
                            30 3.17  35 3.17   3 3.17  72 3.17  69 3.17   2 3.18
  80  0.453  0.902  0.342- 240 2.23 252 2.23  32 3.12   4 3.14  39 3.14  75 3.14  40 3.15  76 3.15
                           124 3.15 112 3.15  31 3.17  72 3.17  37 3.17   3 3.19
  81  0.951  0.028  0.082- 253 2.24 254 2.26  21 3.15   1 3.15  17 3.15  13 3.15  92 3.17 126 3.17
                            84 3.17  70 3.17  89 3.19 125 3.19  82 3.19  67 3.19
  82  0.701  0.153  0.029- 241 2.23 253 2.23 175 2.91  41 3.15 125 3.15  53 3.15  89 3.15  17 3.17
                            21 3.17  42 3.19  81 3.19 187 3.95
  83  0.951  0.028  0.186- 255 2.26 254 2.26  18 3.15  22 3.15   2 3.15  14 3.15 127 3.17  95 3.17
                            70 3.17  84 3.17  86 3.17  73 3.17  92 3.18 126 3.18
  84  0.701  0.154  0.134- 242 2.23 254 2.23 126 3.15  44 3.15  92 3.15  56 3.15  22 3.15  45 3.17
                            42 3.17  83 3.17  81 3.17  21 3.18  18 3.18  17 3.21
  85  0.951  0.028  0.290- 255 2.26 256 2.26  23 3.15   3 3.15  19 3.15  15 3.15 127 3.17  95 3.17
                            86 3.17  73 3.17  98 3.17 128 3.17  76 3.18  88 3.18
  86  0.701  0.153  0.238- 243 2.23 255 2.23  47 3.15 127 3.15  59 3.15  95 3.15  19 3.16  48 3.17
                            23 3.17  18 3.17  85 3.17  45 3.17  83 3.17  22 3.18
  87  0.951  0.028  0.393- 256 2.22  76 3.14  88 3.14 128 3.14  98 3.14  16 3.15   4 3.15  20 3.15
                            24 3.15 190 3.30 166 3.71 226 4.14
  88  0.701  0.152  0.342- 244 2.23 256 2.23  20 3.11  87 3.14  24 3.14  51 3.14 128 3.15  50 3.15
                            98 3.15  62 3.15  19 3.17  48 3.18  85 3.18  23 3.19
  89  0.951  0.153  0.029- 253 2.23 257 2.23  34 3.15  67 3.15  91 3.15  82 3.15  21 3.17   1 3.17
                            81 3.19  90 3.19 139 3.37 175 3.63
  90  0.951  0.278  0.082- 257 2.24 258 2.26  21 3.15  25 3.15   1 3.15   5 3.15 104 3.17  92 3.17
                            36 3.17  94 3.17  91 3.19  34 3.19  89 3.19 101 3.19
  91  0.702  0.403  0.029- 257 2.23 245 2.23 211 3.13 101 3.15  65 3.15  89 3.15  53 3.15  25 3.17
                            21 3.17  90 3.19  54 3.19 187 3.43
  92  0.954  0.152  0.134- 254 2.23 258 2.23  70 3.15  36 3.15  84 3.15  94 3.15   2 3.16  81 3.17
                            90 3.17  83 3.18  93 3.18   1 3.18  22 3.19  21 3.21
  93  0.951  0.278  0.186- 258 2.26 259 2.26   6 3.15   2 3.15  26 3.15  22 3.15  94 3.17  36 3.17
                            38 3.17  97 3.17  95 3.17 107 3.17 104 3.18  92 3.18
  94  0.701  0.402  0.134- 258 2.23 246 2.23  68 3.15 104 3.15  56 3.15  92 3.15  22 3.15  93 3.17
                            90 3.17  57 3.17  54 3.17  21 3.18  26 3.18  25 3.21
  95  0.951  0.153  0.238- 255 2.23 259 2.23  38 3.15  73 3.15  97 3.15  86 3.15  23 3.16  85 3.17
                            83 3.17  22 3.17   3 3.17  96 3.17  93 3.17   2 3.18
  96  0.951  0.278  0.290- 259 2.26 260 2.26   7 3.15   3 3.15  23 3.15  27 3.15  38 3.17  97 3.17
                            95 3.17 107 3.17  98 3.17 110 3.17  40 3.18 100 3.18
  97  0.702  0.403  0.238- 259 2.23 247 2.23 107 3.15  71 3.15  95 3.15  59 3.15  27 3.16  96 3.17
                            23 3.17  26 3.17  60 3.17  93 3.17  57 3.17  22 3.18
  98  0.950  0.154  0.342- 256 2.23 260 2.23  24 3.12   4 3.14  87 3.14  99 3.14  76 3.15  40 3.15
                            88 3.15 100 3.15  23 3.17  96 3.17  85 3.17   3 3.19
  99  0.951  0.278  0.394- 260 2.22 166 3.11  40 3.14 100 3.14  98 3.14 110 3.14   4 3.15   8 3.15
                            24 3.15  28 3.15 130 3.49
 100  0.701  0.404  0.342- 260 2.23 248 2.23  28 3.11  63 3.14  24 3.14  99 3.14  74 3.15 110 3.15
                            62 3.15  98 3.15  27 3.17  96 3.18  60 3.18  23 3.19
 101  0.952  0.403  0.029- 261 2.23 257 2.23 211 2.81  91 3.15 103 3.15  34 3.15  43 3.15   5 3.17
                            25 3.17 102 3.19  90 3.19 163 3.85
 102  0.951  0.528  0.082- 261 2.24 262 2.26  29 3.15  25 3.15   9 3.15   5 3.15 104 3.17 116 3.17
                           106 3.17  46 3.17 113 3.19 101 3.19 103 3.19  43 3.19
 103  0.701  0.653  0.029- 249 2.23 261 2.23 223 2.93  65 3.15 101 3.15  77 3.15 113 3.15  25 3.17
                            29 3.17  66 3.19 102 3.19 235 3.95
 104  0.949  0.405  0.134- 262 2.23 258 2.23 106 3.15  94 3.15  46 3.15  36 3.15  26 3.16 102 3.17
                            90 3.17 105 3.18  93 3.18  25 3.18   6 3.19   5 3.21
 105  0.951  0.528  0.186- 263 2.26 262 2.26   6 3.15  10 3.15  26 3.15  30 3.15 107 3.17 119 3.17
                            46 3.17 106 3.17  49 3.17 109 3.17 116 3.18 104 3.18
 106  0.701  0.654  0.134- 250 2.23 262 2.23 104 3.15  68 3.15 116 3.15  78 3.15  30 3.15  69 3.17
                            66 3.17 105 3.17 102 3.17  29 3.18  26 3.18  25 3.21
 107  0.952  0.403  0.238- 263 2.23 259 2.23  97 3.15 109 3.15  38 3.15  49 3.15   7 3.16 108 3.17
                           105 3.17   6 3.17  27 3.17  96 3.17  93 3.17  26 3.18
 108  0.951  0.528  0.290- 263 2.26 264 2.26  31 3.15  11 3.15   7 3.15  27 3.15 107 3.17 119 3.17
                           109 3.17  49 3.17 122 3.17 110 3.17  52 3.18 112 3.18
 109  0.701  0.653  0.238- 251 2.23 263 2.23  71 3.15 107 3.15  79 3.15 119 3.15  27 3.16  72 3.17
                            31 3.17  26 3.17 108 3.17  69 3.17 105 3.17  30 3.18
 110  0.953  0.402  0.342- 264 2.23 260 2.23   8 3.12  28 3.14 111 3.14  99 3.14 112 3.15 100 3.15
                            52 3.15  40 3.15   7 3.17  96 3.17 108 3.17  27 3.19
 111  0.951  0.528  0.393- 264 2.22 202 2.58  52 3.14 112 3.14 110 3.14 122 3.14   8 3.15  12 3.15
                            28 3.15  32 3.15
 112  0.701  0.652  0.342- 252 2.23 264 2.23  28 3.11 111 3.14  32 3.14  75 3.14 110 3.15  74 3.15
                           122 3.15  80 3.15  27 3.17  72 3.18 108 3.18  31 3.19
 113  0.951  0.653  0.029- 261 2.23 265 2.23 235 2.66  55 3.15  43 3.15 115 3.15 103 3.15  29 3.17
                             9 3.17 102 3.19 114 3.19 163 4.18
 114  0.951  0.778  0.082- 265 2.24 266 2.26   9 3.15  13 3.15  29 3.15  17 3.15 126 3.17 116 3.17
                            58 3.17 118 3.17 115 3.19  55 3.19 113 3.19 125 3.19
 115  0.702  0.903  0.029- 265 2.23 237 2.23 125 3.15  41 3.15 151 3.15 113 3.15  77 3.15  17 3.17
                            29 3.17 114 3.19  33 3.19 235 3.39
 116  0.954  0.652  0.134- 262 2.23 266 2.23  46 3.15  58 3.15 106 3.15 118 3.15  10 3.16 102 3.17
                           114 3.17 105 3.18 117 3.18   9 3.18  30 3.19  29 3.21
 117  0.951  0.778  0.186- 266 2.26 267 2.26  30 3.15  10 3.15  18 3.15  14 3.15 118 3.17  58 3.17
                           121 3.17  61 3.17 119 3.17 127 3.17 126 3.18 116 3.18
 118  0.701  0.902  0.134- 266 2.23 238 2.23  44 3.15 126 3.15  78 3.15 116 3.15  30 3.15 117 3.17
                           114 3.17  35 3.17  33 3.17  29 3.18  18 3.18  17 3.21
 119  0.951  0.653  0.238- 263 2.23 267 2.23  61 3.15  49 3.15 121 3.15 109 3.15  31 3.16 108 3.17
                            30 3.17 105 3.17  11 3.17 120 3.17 117 3.17  10 3.18
 120  0.951  0.778  0.290- 267 2.26 268 2.26  31 3.15  11 3.15  19 3.15  15 3.15  61 3.17 121 3.17
                           119 3.17 127 3.17 122 3.17 128 3.17 124 3.18  64 3.18
 121  0.702  0.903  0.238- 267 2.23 239 2.23 127 3.15  47 3.15 119 3.15  79 3.15  19 3.16 120 3.17
                            31 3.17  18 3.17  37 3.17 117 3.17  35 3.17  30 3.18
 122  0.950  0.654  0.342- 264 2.23 268 2.23  32 3.12  12 3.14 111 3.14 123 3.14  52 3.15  64 3.15
                           112 3.15 124 3.15  31 3.17 120 3.17 108 3.17  11 3.19
 123  0.951  0.778  0.394- 268 2.22 226 2.83  64 3.14 124 3.14 122 3.14 128 3.14  12 3.15  16 3.15
                            32 3.15  20 3.15 154 3.73
 124  0.701  0.904  0.342- 268 2.23 240 2.23  20 3.11  39 3.14  32 3.14 123 3.14  50 3.15 128 3.15
                            80 3.15 122 3.15  19 3.17 120 3.18  37 3.18  31 3.19
 125  0.952  0.903  0.029- 253 2.23 265 2.23 115 3.15  82 3.15  55 3.15  67 3.15  13 3.17  17 3.17
                            81 3.19 114 3.19 175 3.26 199 3.49
 126  0.949  0.905  0.134- 254 2.23 266 2.23  84 3.15 118 3.15  70 3.15  58 3.15  18 3.16  81 3.17
                           114 3.17 117 3.18  83 3.18  17 3.18  14 3.19  13 3.21
 127  0.952  0.903  0.238- 255 2.23 267 2.23 121 3.15  86 3.15  61 3.15  73 3.15  15 3.16  85 3.17
                            83 3.17  14 3.17  19 3.17 120 3.17 117 3.17  18 3.18
 128  0.953  0.902  0.342- 256 2.23 268 2.23  16 3.12  20 3.14  87 3.14 123 3.14  88 3.15 124 3.15
                            76 3.15  64 3.15  15 3.17 120 3.17  85 3.17  19 3.19
 129  0.199  0.054  0.496- 132 3.56 192 3.56 190 3.58 216 3.58 168 3.58 214 3.59 130 3.59 166 3.59
                           131 4.09 165 4.18 141 4.18 213 4.21 201 4.21
 130  0.199  0.222  0.450-   8 2.66  99 3.49  39 3.53 153 3.58 201 3.58 141 3.59 129 3.59 132 3.97
                           142 4.19 166 4.20 202 4.21 214 4.22
 131  0.199  0.054  0.591- 218 3.63 170 3.63 134 3.64 194 3.64 168 3.65 216 3.65 192 3.65 132 3.65
                           129 4.09 133 4.16 143 4.17 167 4.17 215 4.21 203 4.21
 132  0.199  0.221  0.541- 141 3.55 201 3.55 129 3.56 153 3.56 143 3.65 203 3.65 131 3.65 155 3.65
                           130 3.97 144 4.18 168 4.19
 133  0.199  0.055  0.687- 134 3.61 194 3.61 170 3.62 218 3.62 196 3.62 136 3.62 220 3.64 172 3.64
                           135 4.13 131 4.16 145 4.18 169 4.18
 134  0.199  0.221  0.639- 205 3.60 145 3.60 157 3.61 133 3.61 203 3.63 143 3.63 155 3.64 131 3.64
                           136 4.13 146 4.18 170 4.18 206 4.22 218 4.22
 135  0.199  0.055  0.782- 172 3.60 220 3.61 196 3.61 136 3.61 174 3.63 222 3.63 198 3.64 138 3.64
                           133 4.13 147 4.18 171 4.18 207 4.21
 136  0.199  0.221  0.734- 135 3.61 159 3.61 147 3.61 207 3.62 133 3.62 157 3.62 205 3.63 145 3.64
                           134 4.13 138 4.16 148 4.18 172 4.18
 137  0.199  0.055  0.880- 224 3.55 176 3.55 140 3.56 200 3.56 174 3.65 198 3.65 222 3.65 138 3.65
                           139 3.96 149 4.18 173 4.19
 138  0.199  0.221  0.830- 147 3.63 207 3.63 159 3.64 209 3.64 149 3.64 135 3.64 161 3.65 137 3.65
                           140 4.09 136 4.16 150 4.17 174 4.18 210 4.21 222 4.21
 139  0.199  0.055  0.971-  34 3.07  89 3.37  77 3.40 140 3.58 176 3.58 200 3.58 224 3.58  67 3.67
                           137 3.96 175 4.20 151 4.20 211 4.21 223 4.21
 140  0.199  0.221  0.925- 137 3.56 161 3.56 209 3.57 139 3.58 149 3.58 163 3.58 211 3.59 151 3.59
                           138 4.09 152 4.18 176 4.18 212 4.21 224 4.21
 141  0.532  0.054  0.496- 132 3.55 144 3.56 228 3.57 216 3.57 214 3.58 226 3.58 130 3.59 142 3.60
                           143 4.09 225 4.17 129 4.18 153 4.21
 142  0.533  0.220  0.450-  51 2.56 177 3.58 153 3.58 165 3.59 141 3.60 144 3.99 226 4.18 130 4.19
                           166 4.20 154 4.22
 143  0.531  0.054  0.591- 146 3.62 218 3.62 134 3.63 230 3.63 144 3.64 228 3.64 216 3.65 132 3.65
                           141 4.09 145 4.13 131 4.17 227 4.18 155 4.21
 144  0.533  0.219  0.542- 141 3.56 165 3.57 177 3.57 153 3.58 143 3.64 155 3.65 179 3.65 167 3.65
                           142 3.99 228 4.15 132 4.18 146 4.19
 145  0.532  0.053  0.686- 134 3.60 218 3.61 230 3.61 146 3.61 136 3.64 232 3.64 148 3.64 220 3.64
                           143 4.13 229 4.15 147 4.16 133 4.18
 146  0.532  0.220  0.639- 181 3.61 169 3.61 145 3.61 157 3.62 143 3.62 179 3.63 155 3.63 167 3.64
                           148 4.16 230 4.16 134 4.18 144 4.19
 147  0.531  0.054  0.782- 148 3.60 232 3.61 136 3.61 220 3.62 150 3.62 222 3.63 138 3.63 234 3.64
                           145 4.16 231 4.17 135 4.18 149 4.19 159 4.21
 148  0.532  0.219  0.735- 159 3.60 147 3.60 171 3.61 183 3.61 169 3.63 157 3.64 145 3.64 181 3.64
                           150 4.13 232 4.15 146 4.16 136 4.18
 149  0.533  0.053  0.879- 236 3.56 224 3.56 152 3.57 140 3.58 138 3.64 222 3.64 150 3.65 234 3.65
                           151 3.99 233 4.15 137 4.18 147 4.19
 150  0.531  0.220  0.830- 147 3.62 183 3.62 171 3.63 159 3.63 149 3.65 173 3.65 185 3.65 161 3.65
                           152 4.09 148 4.13 138 4.17 234 4.18 162 4.22
 151  0.533  0.054  0.971-  41 2.81 237 2.90 115 3.15 152 3.58 236 3.58 140 3.59 224 3.60 149 3.99
                            34 4.05 235 4.18 139 4.20 175 4.20 163 4.21
 152  0.532  0.220  0.925- 161 3.55 185 3.56 173 3.56 149 3.57 151 3.58 163 3.59 175 3.59 187 3.60
                           150 4.09 236 4.17 140 4.18 164 4.21
 153  0.199  0.388  0.496- 132 3.56 156 3.56 144 3.58 130 3.58 204 3.58 142 3.58 202 3.59 154 3.59
                           155 4.09 201 4.18 177 4.18 141 4.21 225 4.21
 154  0.199  0.555  0.450-  12 2.50 189 3.58 225 3.58 177 3.59 153 3.59 123 3.73  63 3.77 156 3.97
                           178 4.20 202 4.20 226 4.20 142 4.22
 155  0.199  0.388  0.591- 146 3.63 206 3.63 134 3.64 158 3.64 204 3.64 144 3.65 132 3.65 156 3.66
                           153 4.09 157 4.16 203 4.17 179 4.18 227 4.21 143 4.21
 156  0.199  0.554  0.541- 177 3.55 225 3.55 189 3.56 153 3.56 179 3.65 227 3.65 191 3.65 155 3.66
                           154 3.97 180 4.19 204 4.19
 157  0.199  0.388  0.686- 158 3.61 134 3.61 206 3.62 146 3.62 136 3.62 160 3.63 148 3.64 208 3.64
                           159 4.13 155 4.16 205 4.18 181 4.18
 158  0.199  0.555  0.639- 181 3.60 229 3.60 193 3.61 157 3.61 227 3.63 179 3.63 191 3.64 155 3.64
                           160 4.13 206 4.18 182 4.19 230 4.22
 159  0.199  0.388  0.782- 208 3.60 148 3.60 136 3.61 160 3.61 210 3.63 150 3.63 138 3.64 162 3.64
                           157 4.13 183 4.18 207 4.19 231 4.21 147 4.21
 160  0.199  0.555  0.734- 195 3.61 159 3.61 183 3.62 231 3.62 193 3.62 157 3.63 229 3.63 181 3.64
                           158 4.13 162 4.16 184 4.18 208 4.18
 161  0.199  0.388  0.880- 152 3.55 212 3.55 164 3.56 140 3.56 138 3.65 210 3.65 162 3.65 150 3.65
                           163 3.96 209 4.19 185 4.19
 162  0.199  0.555  0.831- 231 3.63 183 3.63 233 3.64 159 3.64 195 3.64 185 3.64 197 3.65 161 3.65
                           164 4.09 160 4.16 186 4.17 210 4.18 234 4.20 150 4.22
 163  0.199  0.388  0.971-  43 2.53 164 3.58 140 3.58 212 3.58 152 3.59 101 3.85  41 3.88 161 3.96
                           113 4.18 211 4.20 187 4.20  53 4.21 235 4.21 151 4.21
 164  0.199  0.555  0.925- 161 3.56 197 3.56 185 3.58 233 3.58 199 3.58 163 3.58 187 3.59 235 3.59
                           162 4.09 188 4.18 212 4.18 152 4.21 236 4.22
 165  0.866  0.056  0.496- 192 3.55 144 3.57 168 3.57 228 3.57 166 3.57 190 3.58 142 3.59 226 3.60
                           167 4.09 177 4.17 129 4.18 189 4.21
 166  0.865  0.222  0.450-  24 2.89  99 3.11 165 3.57 177 3.58 129 3.59 201 3.60  87 3.71 168 3.99
                           178 4.17 130 4.20 142 4.20 190 4.20
 167  0.867  0.055  0.591- 230 3.62 170 3.63 194 3.63 146 3.64 228 3.64 168 3.65 144 3.65 192 3.65
                           165 4.09 169 4.13 131 4.17 179 4.18 191 4.21
 168  0.865  0.223  0.542- 177 3.57 165 3.57 201 3.57 129 3.58 203 3.64 167 3.65 131 3.65 179 3.65
                           166 3.99 180 4.15 132 4.19 170 4.19
 169  0.865  0.056  0.686- 194 3.60 170 3.61 146 3.61 230 3.61 148 3.63 196 3.64 172 3.64 232 3.64
                           167 4.13 181 4.15 171 4.16 133 4.18
 170  0.866  0.222  0.639- 169 3.61 181 3.61 205 3.62 133 3.62 167 3.63 203 3.63 131 3.63 179 3.63
                           172 4.16 182 4.17 134 4.18 168 4.19 194 4.22
 171  0.866  0.056  0.782- 232 3.61 148 3.61 172 3.62 196 3.62 234 3.62 174 3.63 150 3.63 198 3.63
                           169 4.16 183 4.17 135 4.18 173 4.19 195 4.21
 172  0.865  0.223  0.735- 207 3.60 135 3.60 183 3.61 171 3.62 181 3.64 133 3.64 169 3.64 205 3.64
                           174 4.13 184 4.15 170 4.16 136 4.18
 173  0.865  0.056  0.879- 152 3.56 176 3.57 236 3.57 200 3.58 198 3.64 174 3.64 234 3.64 150 3.65
                           175 3.99 185 4.15 137 4.19 171 4.19
 174  0.867  0.222  0.830- 207 3.62 135 3.63 171 3.63 183 3.64 173 3.64 209 3.64 137 3.65 185 3.65
                           176 4.09 172 4.13 138 4.18 186 4.18 198 4.21
 175  0.865  0.055  0.971- 253 2.68  82 2.91 125 3.26 236 3.57 200 3.59 152 3.59 176 3.60  89 3.63
                            67 3.92 173 3.99 187 4.18 139 4.20 151 4.20 199 4.21
 176  0.866  0.222  0.925- 137 3.55 185 3.56 173 3.57 209 3.57 211 3.58 139 3.58 187 3.58 175 3.60
                           174 4.09 188 4.17 140 4.18 200 4.21
 177  0.532  0.387  0.496- 156 3.55 180 3.56 168 3.57 144 3.57 142 3.58 166 3.58 154 3.59 178 3.60
                           179 4.09 165 4.17 153 4.18 189 4.21
 178  0.533  0.553  0.450-  63 2.81  28 3.07 213 3.58 201 3.58 189 3.59 177 3.60 180 3.99  75 4.15
                           166 4.17 154 4.20 202 4.20
 179  0.531  0.387  0.591- 146 3.63 158 3.63 182 3.63 170 3.63 180 3.64 168 3.65 144 3.65 156 3.65
                           177 4.09 181 4.13 155 4.18 167 4.18 191 4.21
 180  0.533  0.552  0.542- 201 3.56 177 3.56 213 3.57 189 3.58 179 3.64 203 3.65 191 3.65 215 3.65
                           178 3.99 168 4.15 156 4.19 182 4.20
 181  0.533  0.386  0.686- 158 3.60 146 3.61 170 3.61 182 3.62 172 3.64 160 3.64 184 3.64 148 3.64
                           179 4.13 169 4.15 183 4.16 157 4.18
 182  0.533  0.553  0.639- 217 3.60 205 3.60 181 3.62 215 3.62 193 3.62 179 3.63 191 3.63 203 3.63
                           184 4.16 170 4.17 158 4.19 180 4.20 194 4.21
 183  0.532  0.387  0.782- 184 3.61 172 3.61 148 3.61 160 3.62 150 3.62 186 3.62 162 3.63 174 3.64
                           181 4.16 171 4.17 159 4.18 185 4.19
 184  0.533  0.552  0.735- 195 3.60 183 3.61 207 3.61 219 3.62 205 3.63 193 3.64 181 3.64 217 3.64
                           186 4.13 172 4.15 182 4.16 160 4.18
 185  0.533  0.386  0.879- 152 3.56 176 3.56 188 3.57 164 3.58 186 3.64 162 3.64 174 3.65 150 3.65
                           187 3.99 173 4.15 161 4.19 183 4.19
 186  0.531  0.553  0.830- 183 3.62 219 3.63 207 3.63 195 3.63 185 3.64 221 3.65 209 3.65 197 3.65
                           188 4.09 184 4.13 162 4.17 174 4.18 198 4.22
 187  0.533  0.387  0.971-  53 2.64  91 3.43 188 3.57 176 3.58 164 3.59 152 3.60  82 3.95 185 3.99
                           175 4.18 163 4.20 211 4.20 199 4.21
 188  0.532  0.553  0.925- 197 3.55 209 3.57 221 3.57 185 3.57 187 3.57 199 3.58 211 3.59 223 3.60
                           186 4.09 176 4.17 164 4.18 200 4.21
 189  0.199  0.721  0.496- 192 3.56 156 3.56 154 3.58 180 3.58 228 3.58 190 3.59 178 3.59 226 3.59
                           191 4.09 225 4.18 213 4.18 177 4.21 165 4.21
 190  0.198  0.888  0.450-  16 3.13  87 3.30  75 3.33 165 3.58 129 3.58 189 3.59 213 3.59 192 3.97
                           214 4.20 226 4.20 166 4.20
 191  0.199  0.721  0.591- 182 3.63 230 3.63 158 3.64 194 3.64 180 3.65 228 3.65 192 3.65 156 3.65
                           189 4.09 193 4.16 227 4.17 215 4.17 179 4.21 167 4.21
 192  0.199  0.888  0.541- 213 3.55 165 3.55 189 3.56 129 3.56 215 3.65 167 3.65 191 3.65 131 3.65
                           190 3.97 216 4.19 228 4.19
 193  0.199  0.721  0.687- 194 3.61 158 3.61 230 3.62 160 3.62 182 3.62 196 3.63 232 3.64 184 3.64
                           195 4.13 191 4.16 229 4.18 217 4.18
 194  0.199  0.888  0.639- 217 3.60 169 3.60 193 3.61 133 3.61 167 3.63 215 3.63 191 3.64 131 3.64
                           196 4.13 230 4.18 218 4.18 182 4.21 170 4.22
 195  0.199  0.721  0.782- 232 3.60 184 3.60 196 3.61 160 3.61 234 3.63 186 3.63 198 3.64 162 3.64
                           193 4.13 219 4.18 231 4.19 171 4.21
 196  0.199  0.888  0.735- 135 3.61 195 3.61 219 3.62 171 3.62 133 3.62 193 3.63 217 3.63 169 3.64
                           194 4.13 198 4.16 220 4.18 232 4.19
 197  0.199  0.721  0.880- 188 3.55 236 3.56 200 3.56 164 3.56 186 3.65 162 3.65 234 3.65 198 3.65
                           199 3.96 221 4.18 233 4.19
 198  0.199  0.888  0.830- 219 3.63 171 3.63 173 3.64 195 3.64 135 3.64 221 3.64 137 3.65 197 3.65
                           200 4.09 196 4.16 222 4.17 234 4.18 174 4.21 186 4.22
 199  0.199  0.721  0.971-  55 2.78 125 3.49  65 3.52 164 3.58 200 3.58 236 3.58 188 3.58 197 3.96
                            67 4.12 235 4.19 223 4.20 175 4.21 187 4.21
 200  0.199  0.888  0.925- 197 3.56 137 3.56 221 3.58 173 3.58 199 3.58 139 3.58 175 3.59 223 3.59
                           198 4.09 224 4.18 236 4.18 188 4.21 176 4.21
 201  0.866  0.389  0.496- 132 3.55 180 3.56 168 3.57 204 3.57 202 3.58 130 3.58 178 3.58 166 3.60
                           203 4.09 213 4.18 153 4.18 129 4.21
 202  0.865  0.556  0.450- 111 2.58 201 3.58 213 3.58 153 3.59 225 3.60 204 3.99 214 4.17 154 4.20
                           178 4.20 130 4.21
 203  0.867  0.389  0.591- 206 3.63 134 3.63 170 3.63 182 3.63 204 3.64 168 3.64 180 3.65 132 3.65
                           201 4.09 205 4.14 155 4.17 215 4.18 131 4.21
 204  0.865  0.556  0.542- 213 3.57 225 3.57 201 3.57 153 3.58 227 3.64 203 3.64 155 3.64 215 3.64
                           202 3.99 216 4.15 156 4.19 206 4.19
 205  0.865  0.390  0.686- 134 3.60 182 3.60 206 3.61 170 3.62 136 3.63 184 3.63 208 3.64 172 3.64
                           203 4.14 217 4.15 207 4.16 157 4.18
 206  0.866  0.556  0.639- 205 3.61 217 3.61 229 3.61 157 3.62 203 3.63 227 3.63 155 3.63 215 3.63
                           208 4.16 218 4.16 158 4.18 204 4.19 134 4.22
 207  0.866  0.389  0.782- 172 3.60 184 3.61 174 3.62 136 3.62 208 3.62 210 3.63 138 3.63 186 3.63
                           205 4.16 219 4.17 159 4.19 209 4.19 135 4.21
 208  0.865  0.556  0.735- 159 3.60 231 3.60 219 3.61 207 3.62 217 3.64 157 3.64 205 3.64 229 3.64
                           210 4.13 220 4.15 206 4.16 160 4.18
 209  0.865  0.389  0.879- 212 3.57 188 3.57 176 3.57 140 3.57 138 3.64 210 3.64 174 3.64 186 3.65
                           211 3.99 221 4.16 161 4.19 207 4.19
 210  0.867  0.555  0.830- 231 3.62 159 3.63 207 3.63 219 3.64 209 3.64 233 3.65 221 3.65 161 3.65
                           212 4.09 208 4.13 162 4.18 222 4.18 138 4.21
 211  0.865  0.389  0.971- 101 2.81 257 2.92  91 3.13 176 3.58 188 3.59 140 3.59 212 3.60 209 3.99
                            34 4.08 223 4.18 163 4.20 187 4.20 139 4.21
 212  0.866  0.556  0.925- 161 3.55 209 3.57 221 3.57 233 3.57 235 3.58 163 3.58 223 3.58 211 3.60
                           210 4.09 224 4.17 164 4.18 140 4.21
 213  0.532  0.720  0.496- 192 3.55 216 3.56 204 3.57 180 3.57 178 3.58 202 3.58 190 3.59 214 3.60
                           215 4.09 201 4.18 189 4.18 129 4.21
 214  0.533  0.887  0.450-  32 2.91  39 3.11 141 3.58 129 3.59 225 3.59 213 3.60  75 3.68 216 3.99
                           202 4.17 190 4.20 226 4.20 130 4.22
 215  0.531  0.720  0.591- 182 3.62 218 3.63 194 3.63 206 3.63 216 3.64 204 3.64 180 3.65 192 3.65
                           213 4.09 217 4.14 191 4.17 203 4.18 131 4.21
 216  0.533  0.886  0.542- 213 3.56 225 3.56 141 3.57 129 3.58 215 3.64 131 3.65 143 3.65 227 3.65
                           214 3.99 204 4.15 192 4.19 218 4.20
 217  0.532  0.720  0.686- 194 3.60 182 3.60 206 3.61 218 3.62 196 3.63 208 3.64 220 3.64 184 3.64
                           215 4.14 205 4.15 219 4.16 193 4.18
 218  0.532  0.887  0.639- 145 3.61 229 3.61 217 3.62 133 3.62 143 3.62 215 3.63 131 3.63 227 3.63
                           220 4.16 206 4.16 194 4.18 216 4.20 134 4.22
 219  0.532  0.720  0.782- 220 3.61 208 3.61 196 3.62 184 3.62 222 3.62 186 3.63 198 3.63 210 3.64
                           217 4.16 207 4.17 195 4.18 221 4.19
 220  0.533  0.886  0.735- 135 3.61 219 3.61 231 3.61 147 3.62 229 3.63 133 3.64 217 3.64 145 3.64
                           222 4.13 208 4.15 218 4.16 196 4.18
 221  0.533  0.719  0.879- 212 3.57 188 3.57 224 3.57 200 3.58 198 3.64 222 3.64 186 3.65 210 3.65
                           223 3.99 209 4.16 197 4.18 219 4.19
 222  0.531  0.887  0.830- 219 3.62 147 3.63 135 3.63 231 3.63 221 3.64 149 3.64 233 3.65 137 3.65
                           224 4.09 220 4.13 198 4.17 210 4.18 138 4.21
 223  0.533  0.720  0.971- 249 2.67 103 2.93  65 3.24 224 3.58 212 3.58 200 3.59 188 3.60  77 3.63
                            67 3.88 221 3.99 211 4.18 199 4.20 235 4.20 139 4.21
 224  0.532  0.887  0.925- 137 3.55 149 3.56 233 3.56 221 3.57 223 3.58 139 3.58 235 3.59 151 3.60
                           222 4.09 212 4.17 200 4.18 140 4.21
 225  0.866  0.722  0.496- 156 3.55 216 3.56 228 3.57 204 3.57 226 3.57 154 3.58 214 3.59 202 3.60
                           227 4.09 141 4.17 189 4.18 153 4.21
 226  0.865  0.889  0.450- 123 2.83  20 3.04 225 3.57 141 3.58 189 3.59 165 3.60 228 3.99  87 4.14
                           142 4.18 190 4.20 214 4.20 154 4.20
 227  0.867  0.722  0.591- 230 3.62 206 3.63 158 3.63 218 3.63 228 3.64 204 3.64 216 3.65 156 3.65
                           225 4.09 229 4.13 191 4.17 143 4.18 155 4.21
 228  0.865  0.890  0.542- 141 3.57 225 3.57 165 3.57 189 3.58 227 3.64 167 3.64 143 3.64 191 3.65
                           226 3.99 144 4.15 192 4.19 230 4.19
 229  0.865  0.723  0.686- 158 3.60 230 3.61 218 3.61 206 3.61 220 3.63 160 3.63 232 3.64 208 3.64
                           227 4.13 145 4.15 231 4.16 193 4.18
 230  0.866  0.889  0.639- 229 3.61 145 3.61 169 3.61 193 3.62 227 3.62 167 3.62 191 3.63 143 3.63
                           232 4.16 146 4.16 194 4.18 228 4.19 158 4.22
 231  0.865  0.722  0.782- 208 3.60 220 3.61 232 3.62 160 3.62 210 3.62 234 3.63 162 3.63 222 3.63
                           229 4.16 147 4.17 195 4.19 233 4.19 159 4.21
 232  0.865  0.890  0.735- 195 3.60 171 3.61 147 3.61 231 3.62 145 3.64 193 3.64 229 3.64 169 3.64
                           234 4.13 148 4.15 230 4.16 196 4.19
 233  0.865  0.723  0.879- 224 3.56 236 3.57 212 3.57 164 3.58 162 3.64 234 3.64 210 3.65 222 3.65
                           235 3.99 149 4.15 197 4.19 231 4.19
 234  0.867  0.889  0.830- 171 3.62 231 3.63 195 3.63 147 3.64 233 3.64 173 3.64 149 3.65 197 3.65
                           236 4.09 232 4.13 150 4.18 198 4.18 162 4.20
 235  0.865  0.722  0.971- 113 2.66 115 3.39 212 3.58 164 3.59 224 3.59 236 3.60 103 3.95 233 3.99
                           151 4.18 199 4.19 223 4.20 163 4.21
 236  0.866  0.889  0.925- 197 3.56 149 3.56 233 3.57 173 3.57 175 3.57 151 3.58 199 3.58 235 3.60
                           234 4.09 152 4.17 200 4.18 164 4.22
 237  0.451  0.028  0.030-  41 2.23  77 2.23 115 2.23  34 2.23  33 2.24 151 2.90
 238  0.451  0.028  0.134-  78 2.23  44 2.23 118 2.23  36 2.23  35 2.26  33 2.26
 239  0.451  0.028  0.238-  79 2.23  47 2.23 121 2.23  38 2.23  37 2.26  35 2.26
 240  0.451  0.028  0.342-  39 2.22  80 2.23  50 2.23 124 2.23  40 2.23  37 2.26
 241  0.451  0.278  0.030-  82 2.23  43 2.23  53 2.23  41 2.23  42 2.24
 242  0.451  0.278  0.134-  84 2.23  46 2.23  56 2.23  44 2.23  45 2.26  42 2.26
 243  0.451  0.278  0.238-  49 2.23  86 2.23  47 2.23  59 2.23  48 2.26  45 2.26
 244  0.451  0.278  0.342-  51 2.22  88 2.23  52 2.23  50 2.23  62 2.23  48 2.26
 245  0.451  0.528  0.030-  65 2.23  53 2.23  91 2.23  55 2.23  54 2.24
 246  0.451  0.528  0.134-  56 2.23  68 2.23  94 2.23  58 2.23  57 2.26  54 2.26
 247  0.451  0.528  0.238-  59 2.23  71 2.23  61 2.23  97 2.23  60 2.26  57 2.26
 248  0.451  0.528  0.342-  63 2.22  62 2.23  74 2.23 100 2.23  64 2.23  60 2.26
 249  0.451  0.778  0.030- 103 2.23  67 2.23  77 2.23  65 2.23  66 2.24 223 2.67
 250  0.451  0.778  0.134- 106 2.23  70 2.23  78 2.23  68 2.23  69 2.26  66 2.26
 251  0.451  0.778  0.238-  73 2.23 109 2.23  71 2.23  79 2.23  72 2.26  69 2.26
 252  0.451  0.778  0.342-  75 2.22 112 2.23  76 2.23  74 2.23  80 2.23  72 2.26
 253  0.951  0.028  0.030-  89 2.23 125 2.23  67 2.23  82 2.23  81 2.24 175 2.68
 254  0.951  0.028  0.134- 126 2.23  92 2.23  70 2.23  84 2.23  83 2.26  81 2.26
 255  0.951  0.028  0.238- 127 2.23  95 2.23  86 2.23  73 2.23  85 2.26  83 2.26
 256  0.951  0.028  0.342-  87 2.22 128 2.23  98 2.23  76 2.23  88 2.23  85 2.26
 257  0.951  0.278  0.030-  34 2.23  91 2.23 101 2.23  89 2.23  90 2.24 211 2.92
 258  0.951  0.278  0.134-  36 2.23  94 2.23 104 2.23  92 2.23  93 2.26  90 2.26
 259  0.951  0.278  0.238-  97 2.23  38 2.23  95 2.23 107 2.23  96 2.26  93 2.26
 260  0.951  0.278  0.342-  99 2.22  40 2.23 100 2.23  98 2.23 110 2.23  96 2.26
 261  0.951  0.528  0.030- 113 2.23 101 2.23  43 2.23 103 2.23 102 2.24
 262  0.951  0.528  0.134- 104 2.23 116 2.23  46 2.23 106 2.23 105 2.26 102 2.26
 263  0.951  0.528  0.238- 107 2.23 119 2.23 109 2.23  49 2.23 108 2.26 105 2.26
 264  0.951  0.528  0.342- 111 2.22 110 2.23 122 2.23  52 2.23 112 2.23 108 2.26
 265  0.951  0.778  0.030-  55 2.23 115 2.23 125 2.23 113 2.23 114 2.24
 266  0.951  0.778  0.134-  58 2.23 118 2.23 126 2.23 116 2.23 117 2.26 114 2.26
 267  0.951  0.778  0.238-  61 2.23 121 2.23 119 2.23 127 2.23 120 2.26 117 2.26
 268  0.951  0.778  0.342- 123 2.22  64 2.23 124 2.23 122 2.23 128 2.23 120 2.26
 
  LATTYP: Found a simple tetragonal cell.
 ALAT       =    12.5968630722
 C/A-ratio  =     3.4392757282
  
  Lattice vectors:
  
 A1 = (   8.9073273000,   8.9073273000,   0.0000000000)
 A2 = (  -8.9073273000,   8.9073273000,   0.0000000000)
 A3 = (   0.0000000000,   0.0000000000,  43.3240854150)


Analysis of symmetry for initial positions (statically):
=====================================================================
 Subroutine PRICEL returns:
 Original cell was already a primitive cell.
 

 Routine SETGRP: Setting up the symmetry group for a 
 simple tetragonal supercell.


 Subroutine GETGRP returns: Found  1 space group operations
 (whereof  1 operations were pure point group operations)
 out of a pool of 16 trial point group operations.


The static configuration has the point symmetry C_1 .


Analysis of symmetry for dynamics (positions and initial velocities):
=====================================================================
 Subroutine PRICEL returns:
 Original cell was already a primitive cell.
 

 Routine SETGRP: Setting up the symmetry group for a 
 simple tetragonal supercell.


 Subroutine GETGRP returns: Found  1 space group operations
 (whereof  1 operations were pure point group operations)
 out of a pool of 16 trial point group operations.


The dynamic configuration has the point symmetry C_1 .


 Subroutine INISYM returns: Found  1 space group operations
 (whereof  1 operations are pure point group operations),
 and found     1 'primitive' translations


----------------------------------------------------------------------------------------

                                     Primitive cell                                     

  volume of cell :    6874.7074

  direct lattice vectors                    reciprocal lattice vectors
    -8.907327300  8.907327300  0.000000000     0.000000000  0.112267122  0.000000000
   -17.814654600  0.000000000  0.000000000    -0.056133561 -0.056133561  0.000000000
     0.000000000  0.000000000 43.324085415     0.000000000  0.000000000  0.023081849

  length of vectors
    12.596863072 17.814654600 43.324085415     0.112267122  0.079384843  0.023081849

  position of ions in fractional coordinates (direct lattice)
     0.201399702  0.028178779  0.080894486
     0.201402662  0.028176319  0.185853453
     0.201403792  0.028176729  0.290023539
     0.201403382  0.028177129  0.393059531
     0.201422902  0.278157569  0.080924301
     0.201403282  0.278177099  0.185854542
     0.201403382  0.278177299  0.289999286
     0.201403462  0.278177109  0.393126304
     0.201401352  0.528176489  0.080895072
     0.201403362  0.528176809  0.185853472
     0.201403782  0.528176859  0.290023488
     0.201403372  0.528177169  0.393059550
     0.201422832  0.778156579  0.080924314
     0.201402612  0.778178299  0.185854307
     0.201409842  0.778172079  0.289993941
     0.201403382  0.778177149  0.393126259
     0.701401512  0.028176649  0.080894957
     0.701403632  0.028176989  0.185853428
     0.701404012  0.028176809  0.290023546
     0.701403342  0.028177139  0.393059531
     0.701422682  0.278156669  0.080924333
     0.701402642  0.278178279  0.185854358
     0.701409732  0.278172129  0.289993934
     0.701403362  0.278177179  0.393126265
     0.701400122  0.528178669  0.080894619
     0.701403002  0.528176429  0.185853510
     0.701403792  0.528176899  0.290023495
     0.701403252  0.528177179  0.393059538
     0.701423602  0.778156889  0.080924358
     0.701401932  0.778178979  0.185854759
     0.701409852  0.778172009  0.289993973
     0.701403322  0.778177229  0.393126265
     0.451400532  0.028175519  0.081668899
     0.201187022  0.153151379  0.028898264
     0.451408762  0.028173019  0.185930208
     0.201382212  0.154421419  0.133807246
     0.451404622  0.028176599  0.290085228
     0.201212832  0.152962829  0.238050794
     0.451406202  0.028174919  0.393468262
     0.201379942  0.152286809  0.342410023
     0.451267322  0.153150329  0.028861702
     0.451409772  0.278171779  0.081695866
     0.201657552  0.403178369  0.028901704
     0.454040792  0.151817499  0.133673995
     0.451405152  0.278175579  0.185900100
     0.201422342  0.401932419  0.133807858
     0.450968802  0.153365779  0.238014920
     0.451405552  0.278175649  0.290125332
     0.201600142  0.403383579  0.238049233
     0.449699432  0.154013779  0.342301528
     0.451405352  0.278175339  0.393534556
     0.201429082  0.404067029  0.342409863
     0.451552692  0.403186049  0.028852356
     0.451409252  0.528172229  0.081669867
     0.201188732  0.653151299  0.028897932
     0.448760332  0.404534849  0.133673848
     0.451393532  0.528182129  0.185931903
     0.201382622  0.654421149  0.133807450
     0.451839902  0.402988459  0.238015583
     0.451404412  0.528176809  0.290085610
     0.201211662  0.652962659  0.238051418
     0.453109962  0.402339349  0.342301681
     0.451406252  0.528174859  0.393468414
     0.201379922  0.652286729  0.342410112
     0.451268262  0.653150239  0.028862065
     0.451394702  0.778180199  0.081697108
     0.201657442  0.903178899  0.028901901
     0.454051302  0.651810649  0.133673243
     0.451411462  0.778173919  0.185900877
     0.201418542  0.901927969  0.133816082
     0.450969902  0.653365439  0.238015538
     0.451405342  0.778176559  0.290125274
     0.201600402  0.903383669  0.238049584
     0.449699582  0.654013729  0.342301611
     0.451405352  0.778175389  0.393534550
     0.201429272  0.904067229  0.342409927
     0.451551912  0.903186279  0.028852407
     0.448761642  0.904534479  0.133674218
     0.451840092  0.902989039  0.238014812
     0.453109882  0.902339479  0.342301541
     0.951409102  0.028172389  0.081669822
     0.701188822  0.153151189  0.028897920
     0.951393492  0.028182129  0.185931884
     0.701383122  0.154420869  0.133807450
     0.951404552  0.028176639  0.290085604
     0.701211902  0.152962119  0.238051546
     0.951406302  0.028174849  0.393468408
     0.701379932  0.152286669  0.342410118
     0.951268452  0.153150099  0.028862090
     0.951395612  0.278179249  0.081697121
     0.701657532  0.403178759  0.028901921
     0.954051392  0.151810299  0.133673275
     0.951412882  0.278172629  0.185900883
     0.701418792  0.401927429  0.133816216
     0.950970872  0.153364789  0.238015704
     0.951406342  0.278175619  0.290125395
     0.701600832  0.403383469  0.238049615
     0.949699622  0.154013709  0.342301598
     0.951405492  0.278175249  0.393534556
     0.701429342  0.404067119  0.342409991
     0.951552082  0.403186209  0.028852413
     0.951400722  0.528175339  0.081669090
     0.701187122  0.653151419  0.028898257
     0.948759312  0.404535499  0.133673765
     0.951408652  0.528173069  0.185930476
     0.701381992  0.654421689  0.133807074
     0.951840272  0.402988739  0.238015385
     0.951404392  0.528176789  0.290085400
     0.701212752  0.652961909  0.238051609
     0.953110242  0.402339279  0.342301598
     0.951406422  0.528174799  0.393468363
     0.701380012  0.652286679  0.342410118
     0.951267222  0.653150329  0.028861740
     0.951408822  0.778172719  0.081695809
     0.701657602  0.903178419  0.028901672
     0.954040492  0.651817899  0.133673829
     0.951403702  0.778176879  0.185900100
     0.701422362  0.901931459  0.133808234
     0.950970422  0.653365079  0.238015742
     0.951404572  0.778176579  0.290125281
     0.701596102  0.903392209  0.238050501
     0.949699362  0.654013779  0.342301611
     0.951405442  0.778175309  0.393534562
     0.701429112  0.904067259  0.342409863
     0.951552622  0.903186129  0.028852311
     0.948759342  0.904535529  0.133673695
     0.951839822  0.902988719  0.238015576
     0.953109692  0.902339489  0.342301643
     0.199016312  0.054490185  0.496092383
     0.198607762  0.221593455  0.449782762
     0.199100002  0.054414945  0.590519993
     0.199183692  0.221073845  0.541351950
     0.198683182  0.054688205  0.686542279
     0.198851072  0.221250315  0.639209905
     0.198598332  0.054822665  0.781774344
     0.198641892  0.221415295  0.734493298
     0.198727032  0.054651615  0.879544312
     0.198837792  0.221397825  0.830483476
     0.198603002  0.054777405  0.971001152
     0.198835792  0.221208745  0.924851281
     0.531638902  0.053580305  0.496303072
     0.532704032  0.220429985  0.449850412
     0.531143412  0.053738945  0.590764596
     0.533162032  0.219205485  0.541974667
     0.532494712  0.052746245  0.686199578
     0.532241432  0.219758065  0.638743918
     0.531440512  0.053587925  0.782184477
     0.532471732  0.219363625  0.734821208
     0.532912042  0.052648025  0.878973733
     0.531286102  0.220117975  0.830121311
     0.533027972  0.053695015  0.971110269
     0.531973012  0.220073865  0.924555001
     0.199008282  0.387819325  0.496082069
     0.198502952  0.555111535  0.449822910
     0.198948792  0.387866485  0.590544078
     0.199188472  0.554432425  0.541350064
     0.198746732  0.388021865  0.686494165
     0.198973292  0.554553985  0.639214795
     0.198621942  0.388121455  0.781790333
     0.198653402  0.554803205  0.734460849
     0.198853832  0.387900645  0.879504739
     0.198609632  0.554846925  0.830517519
     0.198907042  0.387870285  0.971023626
     0.198892652  0.554533905  0.924869400
     0.866313832  0.055593045  0.496292831
     0.864698422  0.222166755  0.449876732
     0.866972932  0.055122215  0.590759868
     0.864761112  0.222982385  0.542003270
     0.864904012  0.056449885  0.686177192
     0.865723702  0.222422535  0.638775711
     0.865508492  0.055702485  0.782283385
     0.864858432  0.223168905  0.734864449
     0.864873662  0.056271305  0.878974033
     0.866769662  0.221947825  0.830253793
     0.865018422  0.055199575  0.971147689
     0.865619202  0.222311105  0.924681047
     0.531614182  0.386910985  0.496309023
     0.533286732  0.553456305  0.449911504
     0.531189722  0.387066205  0.590769219
     0.533471142  0.552486525  0.541930535
     0.532640672  0.385991325  0.686127661
     0.532641092  0.553284635  0.638807058
     0.531783682  0.386623855  0.782260894
     0.532696772  0.552486115  0.734803365
     0.532934392  0.386092375  0.878998701
     0.531250782  0.553484995  0.830215427
     0.532859952  0.387129955  0.971109872
     0.531791372  0.553471925  0.924666742
     0.198973332  0.721238665  0.496109263
     0.198418462  0.888358145  0.449827752
     0.199247822  0.720986475  0.590536970
     0.199214292  0.887644535  0.541386981
     0.198718372  0.721277045  0.686520347
     0.199070892  0.887753695  0.639251162
     0.198758702  0.721472775  0.781768588
     0.198765062  0.888113245  0.734504559
     0.199054122  0.721276215  0.879575910
     0.198721122  0.888106615  0.830476821
     0.198561502  0.721329225  0.971017352
     0.198937172  0.887842715  0.924840197
     0.866412892  0.388836185  0.496319418
     0.864785852  0.555565545  0.449881881
     0.866981882  0.388624165  0.590732026
     0.864746622  0.556434245  0.542027266
     0.865177242  0.389757365  0.686182892
     0.865610142  0.555922045  0.638784616
     0.865517422  0.388803665  0.782311446
     0.864899082  0.556474475  0.734853317
     0.865062372  0.389457865  0.879032324
     0.866682182  0.555261435  0.830230898
     0.864916412  0.388781795  0.971107897
     0.865897602  0.555601745  0.924651707
     0.531791262  0.720298875  0.496347106
     0.532944522  0.886934135  0.449862087
     0.531308052  0.720321565  0.590761406
     0.533373432  0.885859255  0.541943060
     0.532325382  0.719568165  0.686225258
     0.532303692  0.886517815  0.638779872
     0.531802742  0.719981375  0.782257721
     0.532636052  0.885950835  0.734783020
     0.532879732  0.719493265  0.878969200
     0.530878432  0.887062085  0.830148157
     0.532947742  0.720359585  0.971128453
     0.531822252  0.886798085  0.924635920
     0.866339452  0.722273825  0.496313386
     0.864739932  0.888811565  0.449880011
     0.866911202  0.721955215  0.590765818
     0.864602992  0.889672655  0.542030990
     0.865058382  0.723156365  0.686204613
     0.865686272  0.889169565  0.638778625
     0.865394892  0.722341105  0.782278932
     0.865002982  0.889645815  0.734872933
     0.864728462  0.722974955  0.879010716
     0.866654572  0.888619565  0.830237318
     0.865025482  0.721943995  0.971143430
     0.865511812  0.889188495  0.924644243
     0.451437062  0.028155469  0.029939695
     0.451404442  0.028174239  0.133824829
     0.451404722  0.028176799  0.238030153
     0.451405542  0.028175649  0.342258169
     0.451438022  0.278156229  0.029946047
     0.451403332  0.278175309  0.133828085
     0.451404992  0.278176209  0.238023992
     0.451405482  0.278175979  0.342304299
     0.451437592  0.528155329  0.029940167
     0.451402602  0.528174289  0.133825874
     0.451404922  0.528176309  0.238031051
     0.451405442  0.528175709  0.342258341
     0.451437062  0.778156959  0.029946659
     0.451400532  0.778176029  0.133828913
     0.451405332  0.778176679  0.238024209
     0.451405082  0.778176249  0.342304280
     0.951437602  0.028155319  0.029940141
     0.951402672  0.028174209  0.133825861
     0.951404772  0.028176449  0.238031045
     0.951405472  0.028175659  0.342258334
     0.951437072  0.278156929  0.029946678
     0.951400772  0.278175629  0.133828939
     0.951406122  0.278176099  0.238024266
     0.951405092  0.278175969  0.342304344
     0.951437042  0.528155489  0.029939797
     0.951404232  0.528174429  0.133824931
     0.951405462  0.528176029  0.238030509
     0.951405032  0.528176139  0.342258360
     0.951437972  0.778156259  0.029946028
     0.951402932  0.778175719  0.133828040
     0.951404872  0.778176759  0.238023941
     0.951405012  0.778176249  0.342304287

  ion indices of the primitive-cell ions
   primitive index   ion index
                 1           1
                 2           2
                 3           3
                 4           4
                 5           5
                 6           6
                 7           7
                 8           8
                 9           9
                10          10
                11          11
                12          12
                13          13
                14          14
                15          15
                16          16
                17          17
                18          18
                19          19
                20          20
                21          21
                22          22
                23          23
                24          24
                25          25
                26          26
                27          27
                28          28
                29          29
                30          30
                31          31
                32          32
                33          33
                34          34
                35          35
                36          36
                37          37
                38          38
                39          39
                40          40
                41          41
                42          42
                43          43
                44          44
                45          45
                46          46
                47          47
                48          48
                49          49
                50          50
                51          51
                52          52
                53          53
                54          54
                55          55
                56          56
                57          57
                58          58
                59          59
                60          60
                61          61
                62          62
                63          63
                64          64
                65          65
                66          66
                67          67
                68          68
                69          69
                70          70
                71          71
                72          72
                73          73
                74          74
                75          75
                76          76
                77          77
                78          78
                79          79
                80          80
                81          81
                82          82
                83          83
                84          84
                85          85
                86          86
                87          87
                88          88
                89          89
                90          90
                91          91
                92          92
                93          93
                94          94
                95          95
                96          96
                97          97
                98          98
                99          99
               100         100
               101         101
               102         102
               103         103
               104         104
               105         105
               106         106
               107         107
               108         108
               109         109
               110         110
               111         111
               112         112
               113         113
               114         114
               115         115
               116         116
               117         117
               118         118
               119         119
               120         120
               121         121
               122         122
               123         123
               124         124
               125         125
               126         126
               127         127
               128         128
               129         129
               130         130
               131         131
               132         132
               133         133
               134         134
               135         135
               136         136
               137         137
               138         138
               139         139
               140         140
               141         141
               142         142
               143         143
               144         144
               145         145
               146         146
               147         147
               148         148
               149         149
               150         150
               151         151
               152         152
               153         153
               154         154
               155         155
               156         156
               157         157
               158         158
               159         159
               160         160
               161         161
               162         162
               163         163
               164         164
               165         165
               166         166
               167         167
               168         168
               169         169
               170         170
               171         171
               172         172
               173         173
               174         174
               175         175
               176         176
               177         177
               178         178
               179         179
               180         180
               181         181
               182         182
               183         183
               184         184
               185         185
               186         186
               187         187
               188         188
               189         189
               190         190
               191         191
               192         192
               193         193
               194         194
               195         195
               196         196
               197         197
               198         198
               199         199
               200         200
               201         201
               202         202
               203         203
               204         204
               205         205
               206         206
               207         207
               208         208
               209         209
               210         210
               211         211
               212         212
               213         213
               214         214
               215         215
               216         216
               217         217
               218         218
               219         219
               220         220
               221         221
               222         222
               223         223
               224         224
               225         225
               226         226
               227         227
               228         228
               229         229
               230         230
               231         231
               232         232
               233         233
               234         234
               235         235
               236         236
               237         237
               238         238
               239         239
               240         240
               241         241
               242         242
               243         243
               244         244
               245         245
               246         246
               247         247
               248         248
               249         249
               250         250
               251         251
               252         252
               253         253
               254         254
               255         255
               256         256
               257         257
               258         258
               259         259
               260         260
               261         261
               262         262
               263         263
               264         264
               265         265
               266         266
               267         267
               268         268

----------------------------------------------------------------------------------------

 
 -----------------------------------------------------------------------------
|                                                                             |
|           W    W    AA    RRRRR   N    N  II  N    N   GGGG   !!!           |
|           W    W   A  A   R    R  NN   N  II  NN   N  G    G  !!!           |
|           W    W  A    A  R    R  N N  N  II  N N  N  G       !!!           |
|           W WW W  AAAAAA  RRRRR   N  N N  II  N  N N  G  GGG   !            |
|           WW  WW  A    A  R   R   N   NN  II  N   NN  G    G                |
|           W    W  A    A  R    R  N    N  II  N    N   GGGG   !!!           |
|                                                                             |
|     The requested file  could not be found or opened for reading            |
|     k-point information. Automatic k-point generation is used as a          |
|     fallback, which may lead to unwanted results.                           |
|                                                                             |
 -----------------------------------------------------------------------------

 

Automatic generation of k-mesh.
 Grid dimensions derived from KSPACING:
 generate k-points for:    2    1    1

 Generating k-lattice:

  Cartesian coordinates                     Fractional coordinates (reciprocal lattice)
     0.000000000  0.056133561  0.000000000     0.500000000  0.000000000  0.000000000
    -0.056133561 -0.056133561  0.000000000     0.000000000  1.000000000  0.000000000
     0.000000000  0.000000000  0.023081849     0.000000000  0.000000000  1.000000000

  Length of vectors
     0.056133561  0.079384843  0.023081849

  Shift w.r.t. Gamma in fractional coordinates (k-lattice)
     0.000000000  0.000000000  0.000000000

 
 Subroutine IBZKPT returns following result:
 ===========================================
 
 Found      2 irreducible k-points:
 
 Following reciprocal coordinates:
            Coordinates               Weight
  0.000000  0.000000  0.000000      1.000000
  0.500000  0.000000  0.000000      1.000000
 
 Following cartesian coordinates:
            Coordinates               Weight
  0.000000  0.000000  0.000000      1.000000
  0.000000  0.056134  0.000000      1.000000
 


--------------------------------------------------------------------------------------------------------




 Dimension of arrays:
   k-points           NKPTS =      2   k-points in BZ     NKDIM =      2   number of bands    NBANDS=    448
   number of dos      NEDOS =    301   number of ions     NIONS =    268
   non local maximal  LDIM  =      4   non local SUM 2l+1 LMDIM =      8
   total plane-waves  NPLWV = ******
   max r-space proj   IRMAX =   2044   max aug-charges    IRDMAX=   9010
   dimension x,y,z NGX =    64 NGY =   90 NGZ =  216
   dimension x,y,z NGXF=   128 NGYF=  180 NGZF=  432
   support grid    NGXF=   128 NGYF=  180 NGZF=  432
   ions per type =              32 204  32
   NGX,Y,Z   is equivalent  to a cutoff of   8.45,  8.40,  8.29 a.u.
   NGXF,Y,Z  is equivalent  to a cutoff of  16.89, 16.80, 16.58 a.u.

 SYSTEM =  unknown system                          
 POSCAR =  Cl Na  O                                

 Startparameter for this run:
   NWRITE =      1    write-flag & timer
   PREC   = normal    normal or accurate (medium, high low for compatibility)
   ISTART =      0    job   : 0-new  1-cont  2-samecut
   ICHARG =      2    charge: 1-file 2-atom 10-const
   ISPIN  =      1    spin polarized calculation?
   LNONCOLLINEAR =      F non collinear calculations
   LSORBIT =      F    spin-orbit coupling
   INIWAV =      1    electr: 0-lowe 1-rand  2-diag
   LASPH  =      T    aspherical Exc in radial PAW
 Electronic Relaxation 1
   ENCUT  =  400.0 eV  29.40 Ry    5.42 a.u.  20.54 29.05 70.65*2*pi/ulx,y,z
   ENINI  =  400.0     initial cutoff
   ENAUG  =  605.4 eV  augmentation charge cutoff
   NELM   =    150;   NELMIN=  2; NELMDL=  0     # of ELM steps 
   EDIFF  = 0.1E-07   stopping-criterion for ELM
   LREAL  =      T    real-space projection
   NLSPLINE    = F    spline interpolate recip. space projectors
   LCOMPAT=      F    compatible to vasp.4.4
   GGA_COMPAT  = T    GGA compatible to vasp.4.4-vasp.4.6
   LMAXPAW     = -100 max onsite density
   LMAXMIX     =    6 max onsite mixed and CHGCAR
   VOSKOWN=      0    Vosko Wilk Nusair interpolation
   ROPT   =   -0.00050  -0.00050  -0.00050
 Ionic relaxation
   EDIFFG = -.1E-01   stopping-criterion for IOM
   NSW    =      0    number of steps for IOM
   NBLOCK =      1;   KBLOCK =      1    inner block; outer block 
   IBRION =     -1    ionic relax: 0-MD 1-quasi-New 2-CG
   NFREE  =      0    steps in history (QN), initial steepest desc. (CG)
   ISIF   =      3    stress and relaxation
   IWAVPR =     10    prediction:  0-non 1-charg 2-wave 3-comb
   ISYM   =      2    0-nonsym 1-usesym 2-fastsym
   LCORR  =      T    Harris-Foulkes like correction to forces

   POTIM  = 0.5000    time-step for ionic-motion
   TEIN   =    0.0    initial temperature
   TEBEG  =    0.0;   TEEND  =   0.0 temperature during run
   SMASS  =  -3.00    Nose mass-parameter (am)
   estimated Nose-frequenzy (Omega)   =  0.10E-29 period in steps = 0.13E+47 mass=  -0.363E-26a.u.
   SCALEE = 1.0000    scale energy and forces
   NPACO  =    256;   APACO  = 16.0  distance and # of slots for P.C.
   PSTRESS=    0.0 pullay stress

  Mass of Ions in am
   POMASS =  35.45 22.99 16.00
  Ionic Valenz
   ZVAL   =   7.00  1.00  6.00
  Atomic Wigner-Seitz radii
   RWIGS  =  -1.00 -1.00 -1.00
  virtual crystal weights 
   VCA    =   1.00  1.00  1.00
   NELECT =     620.0000    total number of electrons
   NUPDOWN=      -1.0000    fix difference up-down

 DOS related values:
   EMIN   =  10.00;   EMAX   =-10.00  energy-range for DOS
   EFERMI =   0.00
   ISMEAR =     0;   SIGMA  =   0.10  broadening in eV -4-tet -1-fermi 0-gaus

 Electronic relaxation 2 (details)
   IALGO  =     68    algorithm
   LDIAG  =      T    sub-space diagonalisation (order eigenvalues)
   LSUBROT=      F    optimize rotation matrix (better conditioning)
   TURBO    =      0    0=normal 1=particle mesh
   IRESTART =      0    0=no restart 2=restart with 2 vectors
   NREBOOT  =      0    no. of reboots
   NMIN     =      0    reboot dimension
   EREF     =   0.00    reference energy to select bands
   IMIX   =      4    mixing-type and parameters
     AMIX     =   0.40;   BMIX     =  1.00
     AMIX_MAG =   1.60;   BMIX_MAG =  1.00
     AMIN     =   0.01
     WC   =   100.;   INIMIX=   1;  MIXPRE=   1;  MAXMIX= -45

 Intra band minimization:
   WEIMIN = 0.0000     energy-eigenvalue tresh-hold
   EBREAK =  0.56E-11  absolut break condition
   DEPER  =   0.30     relativ break condition  

   TIME   =   0.40     timestep for ELM

  volume/ion in A,a.u.               =      25.65       173.11
  Fermi-wavevector in a.u.,A,eV,Ry     =   0.734154  1.387350  7.333302  0.538982
  Thomas-Fermi vector in A             =   1.827038
 
 Write flags
   LWAVE        =      F    write WAVECAR
   LDOWNSAMPLE  =      F    k-point downsampling of WAVECAR
   LCHARG       =      F    write CHGCAR
   LVTOT        =      F    write LOCPOT, total local potential
   LVHAR        =      F    write LOCPOT, Hartree potential only
   LELF         =      F    write electronic localiz. function (ELF)
   LORBIT       =      0    0 simple, 1 ext, 2 COOP (PROOUT), +10 PAW based schemes


 Dipole corrections
   LMONO  =      F    monopole corrections only (constant potential shift)
   LDIPOL =      F    correct potential (dipole corrections)
   IDIPOL =      0    1-x, 2-y, 3-z, 4-all directions 
   EPSILON=  1.0000000 bulk dielectric constant

 Exchange correlation treatment:
   GGA     =    PE    GGA type
   LEXCH   =     8    internal setting for exchange type
   VOSKOWN=      0    Vosko Wilk Nusair interpolation
   LHFCALC =     F    Hartree Fock is set to
   LHFONE  =     F    Hartree Fock one center treatment
   AEXX    =    0.0000 exact exchange contribution

 Linear response parameters
   LEPSILON=     F    determine dielectric tensor
   LRPA    =     F    only Hartree local field effects (RPA)
   LNABLA  =     F    use nabla operator in PAW spheres
   LVEL    =     F    velocity operator in full k-point grid
   LINTERFAST=   F  fast interpolation
   KINTER  =     0    interpolate to denser k-point grid
   CSHIFT  =0.1000    complex shift for real part using Kramers Kronig
   OMEGAMAX=  -1.0    maximum frequency
   DEG_THRESHOLD= 0.2000000E-02 threshold for treating states as degnerate
   RTIME   =   -0.100 relaxation time in fs
  (WPLASMAI=    0.000 imaginary part of plasma frequency in eV, 0.658/RTIME)
   DFIELD  = 0.0000000 0.0000000 0.0000000 field for delta impulse in time
 
 Orbital magnetization related:
   ORBITALMAG=     F  switch on orbital magnetization
   LCHIMAG   =     F  perturbation theory with respect to B field
   DQ        =  0.001000  dq finite difference perturbation B field
   LLRAUG    =     F  two centre corrections for induced B field



--------------------------------------------------------------------------------------------------------


 Static calculation
 charge density and potential will be updated during run
 non-spin polarized calculation
 RMM-DIIS sequential band-by-band and
  variant of blocked Davidson during initial phase
 perform sub-space diagonalisation
    before iterative eigenvector-optimisation
 modified Broyden-mixing scheme, WC =      100.0
 initial mixing is a Kerker type mixing with AMIX =  0.4000 and BMIX =      1.0000
 Hartree-type preconditioning will be used
 using additional bands          138
 real space projection scheme for non local part
 use partial core corrections
 calculate Harris-corrections to forces 
   (improved forces if not selfconsistent)
 use gradient corrections 
 use of overlap-Matrix (Vanderbilt PP)
 Gauss-broadening in eV      SIGMA  =   0.10


--------------------------------------------------------------------------------------------------------


  energy-cutoff  :      400.00
  volume of cell :     6874.71
[...]
    -11.20390      3.99726      5.79130         0.015224      0.001398     -0.007958
    -13.43009      4.02071      8.05533        -0.003522      0.003660     -0.002626
    -13.45207      1.79378      5.79709        -0.008943      0.002384     -0.000417
    -11.20379      4.02469     10.31181         0.003465      0.005617     -0.006228
    -13.43009      4.02081     12.56769        -0.002682      0.003237      0.014490
    -13.42456      1.79226     10.31336        -0.009378      0.014203     -0.018940
    -11.20354      4.03600     14.82991        -0.004211      0.024442     -0.051964
    -13.43008      4.02082     17.04666         0.247211     -0.132419     -0.305470
    -13.41402      1.79376     14.83460        -0.022875      0.003332     -0.040122
    -15.65524      4.01959      1.25042         0.109647      0.049788      0.063078
    -17.88373      4.02072      3.53945        -0.002433      0.004522      0.040293
    -17.88605      1.79623      1.25215         0.063281     -0.005830     -0.116303
    -15.65617      4.04438      5.79127        -0.000055     -0.002122      0.000728
    -17.88377      4.02087      8.05399         0.001781      0.001785      0.015109
    -17.86164      1.79410      5.79746         0.007698      0.006223      0.002832
    -15.65642      4.01694     10.31181        -0.008238     -0.000984     -0.018013
    -17.88376      4.02082     12.56941        -0.002635     -0.004103      0.001593
    -17.88919      1.79572     10.31328        -0.002504     -0.030408     -0.003116
    -15.65665      4.00562     14.82990        -0.014177     -0.022931     -0.031195
    -17.88374      4.02082     17.04952         0.027546      0.108580      0.053002
    -17.89984      1.79420     14.83460        -0.013137     -0.000760     -0.021018
    -20.11207      4.02212      1.25000        -0.008986      0.136252     -0.022605
    -20.11124      3.99727      5.79131         0.013113      0.007360      0.000101
    -20.11113      4.02469     10.31177         0.004757      0.000701     -0.000567
    -20.11086      4.03600     14.82990         0.015415     -0.012500     -0.025678
     -8.97639      8.47451      3.53827         0.006246     -0.003860      0.061213
     -8.97405      6.24572      1.25198        -0.022739     -0.247193      0.243727
     -8.97643      8.47437      8.05533        -0.003516      0.003567     -0.000272
     -8.99840      6.24745      5.79709        -0.013152     -0.000425      0.000107
     -8.97643      8.47447     12.56769         0.000821      0.006416      0.023931
     -8.97089      6.24592     10.31337        -0.005554      0.016289     -0.017841
     -8.97641      8.47449     17.04666         0.016732     -0.122936      0.034590
     -8.96036      6.24742     14.83461         0.001583      0.032206     -0.046053
    -11.20158      8.47326      1.25042        -0.034907     -0.137467     -0.012819
    -13.43006      8.47439      3.53945        -0.011693     -0.005632      0.046797
    -13.43238      6.24989      1.25215         0.036295     -0.087680      0.169800
    -11.20250      8.49805      5.79127        -0.002787     -0.007967      0.003093
    -13.43010      8.47455      8.05399         0.001741      0.001644      0.013842
    -13.40797      6.24777      5.79747         0.005742      0.005477     -0.003992
    -11.20275      8.47061     10.31181        -0.006276      0.003020     -0.016734
    -13.43009      8.47449     12.56942         0.003299      0.001653     -0.003017
    -13.43553      6.24939     10.31328        -0.001366     -0.029793     -0.007478
    -11.20299      8.45929     14.82990         0.009865      0.012880     -0.022027
    -13.43008      8.47448     17.04952        -0.151769     -0.006218     -0.072126
    -13.44618      6.24786     14.83460        -0.001134      0.007747     -0.043331
    -15.65841      8.47579      1.25000        -0.202993      0.155829      0.392399
    -17.88370      8.47444      3.53824         0.002832      0.008719      0.065812
    -17.88137      6.24570      1.25199        -0.022993      0.263166      0.220161
    -15.65757      8.45091      5.79129         0.012284      0.004963     -0.006540
    -17.88373      8.47451      8.05527        -0.003657      0.004050     -0.003966
    -17.90574      6.24744      5.79707        -0.012777      0.004903      0.000341
    -15.65746      8.47835     10.31180         0.005482      0.001779     -0.004855
    -17.88376      8.47447     12.56768         0.003540     -0.002774      0.008113
    -17.87822      6.24593     10.31337        -0.005430      0.012124     -0.017639
    -15.65720      8.48966     14.82990         0.028000      0.002757     -0.048931
    -17.88374      8.47449     17.04666        -0.110820      0.311773     -0.654943
    -17.86768      6.24742     14.83461         0.002700     -0.024888     -0.044717
    -20.10890      8.47325      1.25041         0.148520      0.260966      0.621392
    -22.33739      8.47451      3.53940         0.000215     -0.001354      0.049129
    -22.33971      6.24989      1.25214         0.020283      0.074001      0.171031
    -20.10986      8.49795      5.79130        -0.000204     -0.000708     -0.004986
    -22.33742      8.47446      8.05395         0.001753      0.001553      0.012709
    -22.31540      6.24780      5.79712         0.005445      0.006964     -0.004024
    -20.11008      8.47060     10.31181        -0.007479     -0.002177     -0.022275
    -22.33742      8.47447     12.56941        -0.005891     -0.001147     -0.008219
    -22.34297      6.24935     10.31332         0.000198     -0.029928     -0.007318
    -20.11031      8.45928     14.82990        -0.008382     -0.024754     -0.048119
    -22.33740      8.47448     17.04952         0.240786      0.129150     -0.276937
    -22.35350      6.24786     14.83459         0.000731     -0.010277     -0.044252
    -24.56574      8.47579      1.25000         0.124979     -0.048047      0.067977
    -24.56490      8.45091      5.79129         0.015627      0.001863     -0.002460
    -24.56478      8.47835     10.31181         0.002760      0.004817     -0.002044
    -24.56453      8.48966     14.82991        -0.008519      0.024677     -0.035679
     -2.74343      1.77270     21.49275        -0.019732     -0.000430     -0.007903
     -5.71668      1.76906     19.48643        -0.075759      0.005101      0.252134
     -2.74283      1.77345     25.58374        -0.002751     -0.002468      0.006295
     -5.71255      1.77419     23.45358         0.002336     -0.004055      0.034464
     -2.74399      1.76974     29.74382        -0.005532      0.004336     -0.016269
     -5.71273      1.77123     27.69318         0.003337      0.000312     -0.003886
     -2.74563      1.76898     33.86966        -0.003599      0.000305      0.008916
     -5.71381      1.76937     31.82125        -0.002976     -0.001579      0.015854
     -2.74373      1.77013     38.10545         0.003718      0.001770     -0.014553
     -5.71524      1.77111     35.97994        -0.000441     -0.004035     -0.016580
     -2.74486      1.76902     42.06774        -0.000515     -0.002027     -0.454316
     -5.71185      1.77110     40.06834        -0.024169      0.003600     -0.012811
     -5.69000      4.73548     21.50188         0.020239     -0.013772     -0.002395
     -8.67185      4.74497     19.48936         0.169457      0.372187      0.929945
     -5.68841      4.73107     25.59434        -0.004578      0.002969     -0.002175
     -8.65412      4.74905     23.48056        -0.007202     -0.007053      0.005794
     -5.68276      4.74310     29.72897        -0.006233      0.001175     -0.001868
     -8.65576      4.74085     27.67300        -0.001699     -0.006305      0.004398
     -5.68836      4.73371     33.88743        -0.000336      0.002229     -0.007430
     -8.65079      4.74290     31.83546        -0.007754      0.001836     -0.000466
     -5.68473      4.74682     38.08073        -0.006011     -0.007035     -0.008847
     -8.65366      4.73234     35.96425        -0.002543     -0.003184     -0.001086
     -5.70441      4.74785     42.07246         0.370744     -0.161635     -0.185682
     -8.65900      4.73846     40.05550         0.000039      0.014147      0.027808
     -8.68150      1.77263     21.49230        -0.014878     -0.000446      0.001973
    -11.65725      1.76813     19.48817        -0.020603      0.001818      0.532787
     -8.68181      1.77210     25.58478        -0.003960     -0.004041      0.009309
    -11.65126      1.77424     23.45350         0.003428     -0.004554      0.038501
     -8.68278      1.77030     29.74173        -0.003254      0.002815     -0.015727
    -11.65151      1.77232     27.69340         0.001946     -0.000582     -0.003176
     -8.68344      1.76919     33.87035        -0.003243     -0.001454      0.008646
    -11.65310      1.76947     31.81984        -0.001113     -0.001040      0.021600
     -8.68157      1.77126     38.10374         0.002150      0.000721     -0.018455
    -11.65349      1.76908     35.98141        -0.003670     -0.002963     -0.020096
     -8.68151      1.77173     42.06871         0.021675     -0.014750     -0.623849
    -11.65043      1.77160     40.06912         0.008330      0.000197     -0.013570
     -8.70691      7.71654     21.50143         0.000257      0.012175      0.010689
    -11.65998      7.70215     19.49050         0.178643     -0.151505      0.220099
     -8.70439      7.72241     25.59413         0.001268     -0.003176      0.009288
    -11.67506      7.70271     23.48180         0.001952     -0.000248      0.007086
     -8.70962      7.70398     29.72800         0.003064     -0.000480     -0.001018
    -11.67367      7.71128     27.67437        -0.003002     -0.002908      0.003803
     -8.70169      7.70937     33.89171        -0.002773     -0.004308     -0.005592
    -11.67925      7.70358     31.83733         0.009388     -0.001792     -0.004726
     -8.70617      7.70371     38.08075        -0.002056      0.002655     -0.011866
    -11.67452      7.72060     35.96999         0.005824     -0.002546     -0.006380
     -8.68836      7.70500     42.07409        -0.127381      0.382259      0.120088
    -11.67075      7.71035     40.06096         0.013822     -0.019501     -0.001566
    -11.62795      4.73526     21.50213        -0.017913     -0.013148     -0.007103
    -14.60979      4.75016     19.49200        -0.335675      0.243297      0.474488
    -11.62693      4.73148     25.59454        -0.004143      0.003870     -0.003757
    -14.59416      4.75180     23.47864        -0.006444     -0.005839      0.010995
    -11.62071      4.74440     29.72585        -0.007948     -0.002660      0.003477
    -14.60098      4.74441     27.67573         0.004953     -0.008660      0.003903
    -11.62434      4.73677     33.89074         0.000691      0.000878     -0.004617
    -14.58725      4.74490     31.83468        -0.007921      0.001860      0.000770
    -11.62512      4.74702     38.08181        -0.005235     -0.004894     -0.006032
    -14.59217      4.73202     35.96832        -0.003451     -0.003362     -0.004787
    -11.64294      4.74636     42.07245        -0.229648     -0.003762     -0.489762
    -14.59675      4.73684     40.06034        -0.014670      0.018356      0.011690
    -14.62094      1.77232     21.49348         0.017639      0.000629     -0.002512
    -17.59317      1.76738     19.48838         0.070740      0.015376      0.166084
    -14.61889      1.77477     25.58447        -0.004975     -0.002665      0.009069
    -17.58755      1.77447     23.45510         0.002740     -0.001296      0.024847
    -14.61935      1.77005     29.74287        -0.005824      0.005536     -0.014388
    -17.58822      1.77319     27.69497         0.000137     -0.005269     -0.009511
    -14.62320      1.77041     33.86941        -0.004669     -0.000593      0.008485
    -17.59190      1.77047     31.82174        -0.000271     -0.001021      0.015210
    -14.62233      1.77304     38.10682         0.005906     -0.000138     -0.020169
    -17.59139      1.77007     35.97965        -0.003592     -0.003563     -0.013735
    -14.61888      1.76865     42.06844        -0.028287     -0.005458     -0.500112
    -17.58861      1.77200     40.06786         0.004011     -0.000662     -0.008761
    -14.64441      7.71742     21.50258         0.030503      0.013335      0.001690
    -17.60014      7.70293     19.49072         0.148806     -0.379808      0.893236
    -14.64570      7.72249     25.59292         0.002745     -0.002781      0.009470
    -17.61527      7.70258     23.48284         0.004200     -0.000013      0.000977
    -14.64981      7.70642     29.72825         0.005834     -0.000343     -0.002579
    -17.61383      7.71027     27.67476         0.000423     -0.005217      0.005054
    -14.63585      7.70945     33.89293        -0.008019     -0.004892     -0.005358
    -17.61734      7.70394     31.83685         0.011337     -0.002509     -0.003189
    -14.64345      7.70539     38.08327         0.000280      0.000914     -0.008825
    -17.61161      7.71982     35.96899         0.007892     -0.002067     -0.002371
    -14.63011      7.70409     42.07236         0.351427      0.161474     -0.208952
    -17.61069      7.71283     40.05969         0.012936     -0.010206      0.021869
    -17.56871      4.73684     21.50378        -0.013053     -0.017077      0.008036
    -20.54754      4.74711     19.48986         0.180588      0.152226      0.222605
    -17.56481      4.73253     25.59420        -0.004933      0.004556      0.001019
    -20.53221      4.75093     23.47919        -0.007798     -0.005709      0.014059
    -17.56045      4.74160     29.73008        -0.005478      0.004026      0.000654
    -20.53441      4.74140     27.67455         0.001585     -0.007548      0.004273
    -17.56316      4.73694     33.89060         0.001938      0.002203     -0.006269
    -20.52727      4.74436     31.83380        -0.008959      0.000438      0.004702
    -17.56406      4.74653     38.08054        -0.003663     -0.003988     -0.013246
    -20.53141      4.72871     35.96541        -0.004499      0.000402     -0.004196
    -17.58010      4.74714     42.07325        -0.127702     -0.365394      0.151531
    -20.53512      4.73711     40.05901         0.002910      0.023071      0.002933
    -20.58383      7.71677     21.50232        -0.007644      0.011728     -0.004371
    -23.53639      7.70252     19.49064        -0.334244     -0.246847      0.447239
    -20.58324      7.72186     25.59439         0.004974     -0.000114      0.007841
    -23.55051      7.70130     23.48300         0.000203      0.000840      0.001945
    -20.58814      7.70536     29.72919         0.005978     -0.001166     -0.004127
    -23.55120      7.71095     27.67450         0.003700     -0.004973      0.005428
    -20.57661      7.70836     33.89152        -0.003937     -0.004017     -0.002361
    -23.55360      7.70486     31.83770         0.010667     -0.002749     -0.003176
    -20.58197      7.70242     38.08234        -0.002180     -0.000025     -0.006799
    -23.55003      7.71958     35.96927         0.009898      0.000610     -0.004384
    -20.56625      7.70507     42.07390        -0.238196      0.007669     -0.489030
    -23.54998      7.70940     40.05937         0.000212     -0.013989      0.009045
     -4.52268      4.02110      1.29711        -0.227469      0.099793     -0.370666
     -4.52272      4.02081      5.79784         0.004826     -0.002406     -0.017424
     -4.52277      4.02081     10.31244        -0.002826      0.001790      0.011063
     -4.52276      4.02082     14.82802        -0.022659      0.010798     -0.014885
     -8.97636      4.02111      1.29739        -0.052093     -0.171803     -0.129879
     -8.97639      4.02080      5.79798         0.001441      0.002671     -0.008805
     -8.97643      4.02081     10.31217        -0.001298     -0.002803      0.021182
     -8.97643      4.02082     14.83002        -0.002137     -0.013138      0.041827
    -13.43001      4.02110      1.29713         0.193519     -0.032055     -0.249504
    -13.43003      4.02079      5.79788        -0.003165     -0.000190     -0.012531
    -13.43009      4.02081     10.31248         0.003020      0.000078      0.014349
    -13.43008      4.02082     14.82803         0.017878     -0.002014      0.008977
    -17.88370      4.02110      1.29741         0.084683      0.218310     -0.462558
    -17.88371      4.02077      5.79802        -0.001251     -0.004923     -0.023087
    -17.88376      4.02082     10.31218         0.000330      0.002659      0.009922
    -17.88375      4.02081     14.83002         0.008577      0.023981     -0.036700
     -8.97634      8.47477      1.29713         0.076713     -0.231534     -0.461414
     -8.97637      8.47445      5.79788        -0.000981      0.004011     -0.021305
     -8.97643      8.47447     10.31248         0.001080     -0.001979      0.007654
     -8.97642      8.47448     14.82803         0.009527     -0.025911     -0.031756
    -13.43003      8.47476      1.29741        -0.219233     -0.100986     -0.360016
    -13.43004      8.47444      5.79802         0.004668      0.001563     -0.018588
    -13.43010      8.47449     10.31218        -0.003282     -0.000909      0.013524
    -13.43009      8.47448     14.83002        -0.021429     -0.010427     -0.018841
    -17.88367      8.47476      1.29711        -0.044009      0.180987     -0.139168
    -17.88371      8.47447      5.79784         0.001173     -0.003977     -0.007491
    -17.88375      8.47448     10.31245        -0.000693      0.003866      0.018287
    -17.88375      8.47448     14.82803        -0.002993      0.013886      0.042568
    -22.33735      8.47477      1.29738         0.185798      0.030665     -0.256769
    -22.33739      8.47446      5.79798        -0.003018     -0.001193     -0.014727
    -22.33742      8.47447     10.31217         0.002121      0.000606      0.016927
    -22.33742      8.47448     14.83002         0.016487      0.000411      0.004884
 -----------------------------------------------------------------------------------
    total drift:                                0.335437     -0.236875     -0.020796


--------------------------------------------------------------------------------------------------------



  FREE ENERGIE OF THE ION-ELECTRON SYSTEM (eV)
  ---------------------------------------------------
  free  energy   TOTEN  =      -713.65257073 eV

  energy  without entropy=     -713.33864881  energy(sigma->0) =     -713.49560977
 


--------------------------------------------------------------------------------------------------------


    POTLOK:  cpu time    0.2306: real time    0.2310


--------------------------------------------------------------------------------------------------------


     LOOP+:  cpu time  246.3488: real time  247.0273
    4ORBIT:  cpu time    0.0000: real time    0.0000

 total amount of memory used by VASP MPI-rank0    77786. kBytes
=======================================================================

   base      :      30000. kBytes
   nonlr-proj:      11122. kBytes
   fftplans  :       7573. kBytes
   grid      :      13883. kBytes
   one-center:         55. kBytes
   wavefun   :      15153. kBytes
 
  
  
 General timing and accounting informations for this job:
 ========================================================
  
                  Total CPU time used (sec):      255.609
                            User time (sec):      254.008
                          System time (sec):        1.601
                         Elapsed time (sec):      256.449
  
                   Maximum memory used (kb):      142456.
                   Average memory used (kb):          N/A
  
                          Minor page faults:       197174
                          Major page faults:            0
                 Voluntary context switches:          921
