<?xml version="1.0" encoding="ISO-8859-1"?>
<modeling>
 <generator>
  <i name="program" type="string">vasp </i>
  <i name="version" type="string">6.2.1  </i>
  <i name="subversion" type="string">16May21 (build Dec 23 2021 00:35:04) complex                          parallel </i>
  <i name="platform" type="string">LinuxIFC </i>
  <i name="date" type="string">2023 03 28 </i>
  <i name="time" type="string">00:28:14 </i>
 </generator>
 <incar>
  <i type="string" name="PREC">Normal</i>
  <i type="string" name="ALGO">Fast</i>
  <i type="int" name="ISPIN">     0</i>
  <i name="AMIN">      0.01000000</i>
  <i type="int" name="NELM">   150</i>
  <i type="int" name="IBRION">    -1</i>
  <i name="EDIFF">      0.00000001</i>
  <i name="EDIFFG">     -0.01000000</i>
  <i type="int" name="NSW">     0</i>
  <i type="int" name="ISIF">     3</i>
  <i name="ENCUT">    400.00000000</i>
  <i type="string" name="LREAL">AUTO</i>
  <i type="int" name="ISMEAR">     0</i>
  <i name="SIGMA">      0.10000000</i>
  <i name="KSPACING">      0.50000000</i>
  <i type="logical" name="KGAMMA"> T  </i>
  <i type="int" name="NWRITE">     1</i>
  <i type="int" name="LMAXMIX">     6</i>
  <i type="logical" name="LWAVE"> F  </i>
  <i type="logical" name="LCHARG"> F  </i>
  <i type="logical" name="LASPH"> T  </i>
  <i type="string" name="GGA">PE</i>
 </incar>
 <primitive_cell>
  <structure name="primitive_cell" >
   <crystal>
    <varray name="basis" >
     <v>      -8.90732730       8.90732730       0.00000000 </v>
     <v>     -17.81465460       0.00000000       0.00000000 </v>
     <v>       0.00000000       0.00000000      43.32408542 </v>
    </varray>
    <i name="volume">   6874.70743266 </i>
    <varray name="rec_basis" >
     <v>       0.00000000       0.11226712       0.00000000 </v>
     <v>      -0.05613356      -0.05613356       0.00000000 </v>
     <v>       0.00000000       0.00000000       0.02308185 </v>
    </varray>
   </crystal>
   <varray name="positions" >
    <v>       0.20139970       0.02817878       0.08089449 </v>
    <v>       0.20140266       0.02817632       0.18585345 </v>
    <v>       0.20140379       0.02817673       0.29002354 </v>
    <v>       0.20140338       0.02817713       0.39305953 </v>
    <v>       0.20142290       0.27815757       0.08092430 </v>
    <v>       0.20140328       0.27817710       0.18585454 </v>
    <v>       0.20140338       0.27817730       0.28999929 </v>
    <v>       0.20140346       0.27817711       0.39312630 </v>
    <v>       0.20140135       0.52817649       0.08089507 </v>
    <v>       0.20140336       0.52817681       0.18585347 </v>
    <v>       0.20140378       0.52817686       0.29002349 </v>
    <v>       0.20140337       0.52817717       0.39305955 </v>
    <v>       0.20142283       0.77815658       0.08092431 </v>
    <v>       0.20140261       0.77817830       0.18585431 </v>
    <v>       0.20140984       0.77817208       0.28999394 </v>
    <v>       0.20140338       0.77817715       0.39312626 </v>
    <v>       0.70140151       0.02817665       0.08089496 </v>
    <v>       0.70140363       0.02817699       0.18585343 </v>
    <v>       0.70140401       0.02817681       0.29002355 </v>
    <v>       0.70140334       0.02817714       0.39305953 </v>
    <v>       0.70142268       0.27815667       0.08092433 </v>
    <v>       0.70140264       0.27817828       0.18585436 </v>
    <v>       0.70140973       0.27817213       0.28999393 </v>
    <v>       0.70140336       0.27817718       0.39312627 </v>
    <v>       0.70140012       0.52817867       0.08089462 </v>
    <v>       0.70140300       0.52817643       0.18585351 </v>
    <v>       0.70140379       0.52817690       0.29002349 </v>
    <v>       0.70140325       0.52817718       0.39305954 </v>
    <v>       0.70142360       0.77815689       0.08092436 </v>
    <v>       0.70140193       0.77817898       0.18585476 </v>
    <v>       0.70140985       0.77817201       0.28999397 </v>
    <v>       0.70140332       0.77817723       0.39312627 </v>
    <v>       0.45140053       0.02817552       0.08166890 </v>
    <v>       0.20118702       0.15315138       0.02889826 </v>
    <v>       0.45140876       0.02817302       0.18593021 </v>
    <v>       0.20138221       0.15442142       0.13380725 </v>
    <v>       0.45140462       0.02817660       0.29008523 </v>
    <v>       0.20121283       0.15296283       0.23805079 </v>
    <v>       0.45140620       0.02817492       0.39346826 </v>
    <v>       0.20137994       0.15228681       0.34241002 </v>
    <v>       0.45126732       0.15315033       0.02886170 </v>
    <v>       0.45140977       0.27817178       0.08169587 </v>
    <v>       0.20165755       0.40317837       0.02890170 </v>
    <v>       0.45404079       0.15181750       0.13367399 </v>
    <v>       0.45140515       0.27817558       0.18590010 </v>
    <v>       0.20142234       0.40193242       0.13380786 </v>
    <v>       0.45096880       0.15336578       0.23801492 </v>
    <v>       0.45140555       0.27817565       0.29012533 </v>
    <v>       0.20160014       0.40338358       0.23804923 </v>
    <v>       0.44969943       0.15401378       0.34230153 </v>
    <v>       0.45140535       0.27817534       0.39353456 </v>
    <v>       0.20142908       0.40406703       0.34240986 </v>
    <v>       0.45155269       0.40318605       0.02885236 </v>
    <v>       0.45140925       0.52817223       0.08166987 </v>
    <v>       0.20118873       0.65315130       0.02889793 </v>
    <v>       0.44876033       0.40453485       0.13367385 </v>
    <v>       0.45139353       0.52818213       0.18593190 </v>
    <v>       0.20138262       0.65442115       0.13380745 </v>
    <v>       0.45183990       0.40298846       0.23801558 </v>
    <v>       0.45140441       0.52817681       0.29008561 </v>
    <v>       0.20121166       0.65296266       0.23805142 </v>
    <v>       0.45310996       0.40233935       0.34230168 </v>
    <v>       0.45140625       0.52817486       0.39346841 </v>
    <v>       0.20137992       0.65228673       0.34241011 </v>
    <v>       0.45126826       0.65315024       0.02886206 </v>
    <v>       0.45139470       0.77818020       0.08169711 </v>
    <v>       0.20165744       0.90317890       0.02890190 </v>
    <v>       0.45405130       0.65181065       0.13367324 </v>
    <v>       0.45141146       0.77817392       0.18590088 </v>
    <v>       0.20141854       0.90192797       0.13381608 </v>
    <v>       0.45096990       0.65336544       0.23801554 </v>
    <v>       0.45140534       0.77817656       0.29012527 </v>
    <v>       0.20160040       0.90338367       0.23804958 </v>
    <v>       0.44969958       0.65401373       0.34230161 </v>
    <v>       0.45140535       0.77817539       0.39353455 </v>
    <v>       0.20142927       0.90406723       0.34240993 </v>
    <v>       0.45155191       0.90318628       0.02885241 </v>
    <v>       0.44876164       0.90453448       0.13367422 </v>
    <v>       0.45184009       0.90298904       0.23801481 </v>
    <v>       0.45310988       0.90233948       0.34230154 </v>
    <v>       0.95140910       0.02817239       0.08166982 </v>
    <v>       0.70118882       0.15315119       0.02889792 </v>
    <v>       0.95139349       0.02818213       0.18593188 </v>
    <v>       0.70138312       0.15442087       0.13380745 </v>
    <v>       0.95140455       0.02817664       0.29008560 </v>
    <v>       0.70121190       0.15296212       0.23805155 </v>
    <v>       0.95140630       0.02817485       0.39346841 </v>
    <v>       0.70137993       0.15228667       0.34241012 </v>
    <v>       0.95126845       0.15315010       0.02886209 </v>
    <v>       0.95139561       0.27817925       0.08169712 </v>
    <v>       0.70165753       0.40317876       0.02890192 </v>
    <v>       0.95405139       0.15181030       0.13367327 </v>
    <v>       0.95141288       0.27817263       0.18590088 </v>
    <v>       0.70141879       0.40192743       0.13381622 </v>
    <v>       0.95097087       0.15336479       0.23801570 </v>
    <v>       0.95140634       0.27817562       0.29012540 </v>
    <v>       0.70160083       0.40338347       0.23804962 </v>
    <v>       0.94969962       0.15401371       0.34230160 </v>
    <v>       0.95140549       0.27817525       0.39353456 </v>
    <v>       0.70142934       0.40406712       0.34240999 </v>
    <v>       0.95155208       0.40318621       0.02885241 </v>
    <v>       0.95140072       0.52817534       0.08166909 </v>
    <v>       0.70118712       0.65315142       0.02889826 </v>
    <v>       0.94875931       0.40453550       0.13367377 </v>
    <v>       0.95140865       0.52817307       0.18593048 </v>
    <v>       0.70138199       0.65442169       0.13380707 </v>
    <v>       0.95184027       0.40298874       0.23801539 </v>
    <v>       0.95140439       0.52817679       0.29008540 </v>
    <v>       0.70121275       0.65296191       0.23805161 </v>
    <v>       0.95311024       0.40233928       0.34230160 </v>
    <v>       0.95140642       0.52817480       0.39346836 </v>
    <v>       0.70138001       0.65228668       0.34241012 </v>
    <v>       0.95126722       0.65315033       0.02886174 </v>
    <v>       0.95140882       0.77817272       0.08169581 </v>
    <v>       0.70165760       0.90317842       0.02890167 </v>
    <v>       0.95404049       0.65181790       0.13367383 </v>
    <v>       0.95140370       0.77817688       0.18590010 </v>
    <v>       0.70142236       0.90193146       0.13380823 </v>
    <v>       0.95097042       0.65336508       0.23801574 </v>
    <v>       0.95140457       0.77817658       0.29012528 </v>
    <v>       0.70159610       0.90339221       0.23805050 </v>
    <v>       0.94969936       0.65401378       0.34230161 </v>
    <v>       0.95140544       0.77817531       0.39353456 </v>
    <v>       0.70142911       0.90406726       0.34240986 </v>
    <v>       0.95155262       0.90318613       0.02885231 </v>
    <v>       0.94875934       0.90453553       0.13367370 </v>
    <v>       0.95183982       0.90298872       0.23801558 </v>
    <v>       0.95310969       0.90233949       0.34230164 </v>
    <v>       0.19901631       0.05449019       0.49609238 </v>
    <v>       0.19860776       0.22159346       0.44978276 </v>
    <v>       0.19910000       0.05441495       0.59051999 </v>
    <v>       0.19918369       0.22107385       0.54135195 </v>
    <v>       0.19868318       0.05468821       0.68654228 </v>
    <v>       0.19885107       0.22125032       0.63920990 </v>
    <v>       0.19859833       0.05482267       0.78177434 </v>
    <v>       0.19864189       0.22141530       0.73449330 </v>
    <v>       0.19872703       0.05465162       0.87954431 </v>
    <v>       0.19883779       0.22139783       0.83048348 </v>
    <v>       0.19860300       0.05477741       0.97100115 </v>
    <v>       0.19883579       0.22120875       0.92485128 </v>
    <v>       0.53163890       0.05358031       0.49630307 </v>
    <v>       0.53270403       0.22042999       0.44985041 </v>
    <v>       0.53114341       0.05373895       0.59076460 </v>
    <v>       0.53316203       0.21920549       0.54197467 </v>
    <v>       0.53249471       0.05274625       0.68619958 </v>
    <v>       0.53224143       0.21975807       0.63874392 </v>
    <v>       0.53144051       0.05358793       0.78218448 </v>
    <v>       0.53247173       0.21936363       0.73482121 </v>
    <v>       0.53291204       0.05264803       0.87897373 </v>
    <v>       0.53128610       0.22011798       0.83012131 </v>
    <v>       0.53302797       0.05369502       0.97111027 </v>
    <v>       0.53197301       0.22007387       0.92455500 </v>
    <v>       0.19900828       0.38781933       0.49608207 </v>
    <v>       0.19850295       0.55511154       0.44982291 </v>
    <v>       0.19894879       0.38786649       0.59054408 </v>
    <v>       0.19918847       0.55443243       0.54135006 </v>
    <v>       0.19874673       0.38802187       0.68649417 </v>
    <v>       0.19897329       0.55455399       0.63921479 </v>
    <v>       0.19862194       0.38812146       0.78179033 </v>
    <v>       0.19865340       0.55480321       0.73446085 </v>
    <v>       0.19885383       0.38790065       0.87950474 </v>
    <v>       0.19860963       0.55484693       0.83051752 </v>
    <v>       0.19890704       0.38787029       0.97102363 </v>
    <v>       0.19889265       0.55453391       0.92486940 </v>
    <v>       0.86631383       0.05559305       0.49629283 </v>
    <v>       0.86469842       0.22216676       0.44987673 </v>
    <v>       0.86697293       0.05512222       0.59075987 </v>
    <v>       0.86476111       0.22298239       0.54200327 </v>
    <v>       0.86490401       0.05644989       0.68617719 </v>
    <v>       0.86572370       0.22242254       0.63877571 </v>
    <v>       0.86550849       0.05570249       0.78228339 </v>
    <v>       0.86485843       0.22316891       0.73486445 </v>
    <v>       0.86487366       0.05627131       0.87897403 </v>
    <v>       0.86676966       0.22194783       0.83025379 </v>
    <v>       0.86501842       0.05519958       0.97114769 </v>
    <v>       0.86561920       0.22231111       0.92468105 </v>
    <v>       0.53161418       0.38691099       0.49630902 </v>
    <v>       0.53328673       0.55345631       0.44991150 </v>
    <v>       0.53118972       0.38706621       0.59076922 </v>
    <v>       0.53347114       0.55248653       0.54193054 </v>
    <v>       0.53264067       0.38599133       0.68612766 </v>
    <v>       0.53264109       0.55328464       0.63880706 </v>
    <v>       0.53178368       0.38662386       0.78226089 </v>
    <v>       0.53269677       0.55248612       0.73480336 </v>
    <v>       0.53293439       0.38609238       0.87899870 </v>
    <v>       0.53125078       0.55348500       0.83021543 </v>
    <v>       0.53285995       0.38712996       0.97110987 </v>
    <v>       0.53179137       0.55347193       0.92466674 </v>
    <v>       0.19897333       0.72123867       0.49610926 </v>
    <v>       0.19841846       0.88835815       0.44982775 </v>
    <v>       0.19924782       0.72098648       0.59053697 </v>
    <v>       0.19921429       0.88764454       0.54138698 </v>
    <v>       0.19871837       0.72127705       0.68652035 </v>
    <v>       0.19907089       0.88775370       0.63925116 </v>
    <v>       0.19875870       0.72147278       0.78176859 </v>
    <v>       0.19876506       0.88811325       0.73450456 </v>
    <v>       0.19905412       0.72127622       0.87957591 </v>
    <v>       0.19872112       0.88810662       0.83047682 </v>
    <v>       0.19856150       0.72132923       0.97101735 </v>
    <v>       0.19893717       0.88784272       0.92484020 </v>
    <v>       0.86641289       0.38883619       0.49631942 </v>
    <v>       0.86478585       0.55556555       0.44988188 </v>
    <v>       0.86698188       0.38862417       0.59073203 </v>
    <v>       0.86474662       0.55643425       0.54202727 </v>
    <v>       0.86517724       0.38975737       0.68618289 </v>
    <v>       0.86561014       0.55592205       0.63878462 </v>
    <v>       0.86551742       0.38880367       0.78231145 </v>
    <v>       0.86489908       0.55647448       0.73485332 </v>
    <v>       0.86506237       0.38945787       0.87903232 </v>
    <v>       0.86668218       0.55526144       0.83023090 </v>
    <v>       0.86491641       0.38878180       0.97110790 </v>
    <v>       0.86589760       0.55560175       0.92465171 </v>
    <v>       0.53179126       0.72029888       0.49634711 </v>
    <v>       0.53294452       0.88693414       0.44986209 </v>
    <v>       0.53130805       0.72032157       0.59076141 </v>
    <v>       0.53337343       0.88585926       0.54194306 </v>
    <v>       0.53232538       0.71956817       0.68622526 </v>
    <v>       0.53230369       0.88651782       0.63877987 </v>
    <v>       0.53180274       0.71998138       0.78225772 </v>
    <v>       0.53263605       0.88595084       0.73478302 </v>
    <v>       0.53287973       0.71949327       0.87896920 </v>
    <v>       0.53087843       0.88706209       0.83014816 </v>
    <v>       0.53294774       0.72035959       0.97112845 </v>
    <v>       0.53182225       0.88679809       0.92463592 </v>
    <v>       0.86633945       0.72227383       0.49631339 </v>
    <v>       0.86473993       0.88881157       0.44988001 </v>
    <v>       0.86691120       0.72195522       0.59076582 </v>
    <v>       0.86460299       0.88967266       0.54203099 </v>
    <v>       0.86505838       0.72315637       0.68620461 </v>
    <v>       0.86568627       0.88916957       0.63877863 </v>
    <v>       0.86539489       0.72234111       0.78227893 </v>
    <v>       0.86500298       0.88964582       0.73487293 </v>
    <v>       0.86472846       0.72297496       0.87901072 </v>
    <v>       0.86665457       0.88861957       0.83023732 </v>
    <v>       0.86502548       0.72194400       0.97114343 </v>
    <v>       0.86551181       0.88918850       0.92464424 </v>
    <v>       0.45143706       0.02815547       0.02993970 </v>
    <v>       0.45140444       0.02817424       0.13382483 </v>
    <v>       0.45140472       0.02817680       0.23803015 </v>
    <v>       0.45140554       0.02817565       0.34225817 </v>
    <v>       0.45143802       0.27815623       0.02994605 </v>
    <v>       0.45140333       0.27817531       0.13382808 </v>
    <v>       0.45140499       0.27817621       0.23802399 </v>
    <v>       0.45140548       0.27817598       0.34230430 </v>
    <v>       0.45143759       0.52815533       0.02994017 </v>
    <v>       0.45140260       0.52817429       0.13382587 </v>
    <v>       0.45140492       0.52817631       0.23803105 </v>
    <v>       0.45140544       0.52817571       0.34225834 </v>
    <v>       0.45143706       0.77815696       0.02994666 </v>
    <v>       0.45140053       0.77817603       0.13382891 </v>
    <v>       0.45140533       0.77817668       0.23802421 </v>
    <v>       0.45140508       0.77817625       0.34230428 </v>
    <v>       0.95143760       0.02815532       0.02994014 </v>
    <v>       0.95140267       0.02817421       0.13382586 </v>
    <v>       0.95140477       0.02817645       0.23803104 </v>
    <v>       0.95140547       0.02817566       0.34225833 </v>
    <v>       0.95143707       0.27815693       0.02994668 </v>
    <v>       0.95140077       0.27817563       0.13382894 </v>
    <v>       0.95140612       0.27817610       0.23802427 </v>
    <v>       0.95140509       0.27817597       0.34230434 </v>
    <v>       0.95143704       0.52815549       0.02993980 </v>
    <v>       0.95140423       0.52817443       0.13382493 </v>
    <v>       0.95140546       0.52817603       0.23803051 </v>
    <v>       0.95140503       0.52817614       0.34225836 </v>
    <v>       0.95143797       0.77815626       0.02994603 </v>
    <v>       0.95140293       0.77817572       0.13382804 </v>
    <v>       0.95140487       0.77817676       0.23802394 </v>
    <v>       0.95140501       0.77817625       0.34230429 </v>
   </varray>
  </structure>
  <varray name="primitive_index" >
   <v type="int" >        1 </v>
   <v type="int" >        2 </v>
   <v type="int" >        3 </v>
   <v type="int" >        4 </v>
   <v type="int" >        5 </v>
   <v type="int" >        6 </v>
   <v type="int" >        7 </v>
   <v type="int" >        8 </v>
   <v type="int" >        9 </v>
   <v type="int" >       10 </v>
   <v type="int" >       11 </v>
   <v type="int" >       12 </v>
   <v type="int" >       13 </v>
   <v type="int" >       14 </v>
   <v type="int" >       15 </v>
   <v type="int" >       16 </v>
   <v type="int" >       17 </v>
   <v type="int" >       18 </v>
   <v type="int" >       19 </v>
   <v type="int" >       20 </v>
   <v type="int" >       21 </v>
   <v type="int" >       22 </v>
   <v type="int" >       23 </v>
   <v type="int" >       24 </v>
   <v type="int" >       25 </v>
   <v type="int" >       26 </v>
   <v type="int" >       27 </v>
   <v type="int" >       28 </v>
   <v type="int" >       29 </v>
   <v type="int" >       30 </v>
   <v type="int" >       31 </v>
   <v type="int" >       32 </v>
   <v type="int" >       33 </v>
   <v type="int" >       34 </v>
   <v type="int" >       35 </v>
   <v type="int" >       36 </v>
   <v type="int" >       37 </v>
   <v type="int" >       38 </v>
   <v type="int" >       39 </v>
   <v type="int" >       40 </v>
   <v type="int" >       41 </v>
   <v type="int" >       42 </v>
   <v type="int" >       43 </v>
   <v type="int" >       44 </v>
   <v type="int" >       45 </v>
   <v type="int" >       46 </v>
   <v type="int" >       47 </v>
   <v type="int" >       48 </v>
   <v type="int" >       49 </v>
   <v type="int" >       50 </v>
   <v type="int" >       51 </v>
   <v type="int" >       52 </v>
   <v type="int" >       53 </v>
   <v type="int" >       54 </v>
   <v type="int" >       55 </v>
   <v type="int" >       56 </v>
   <v type="int" >       57 </v>
   <v type="int" >       58 </v>
   <v type="int" >       59 </v>
   <v type="int" >       60 </v>
   <v type="int" >       61 </v>
   <v type="int" >       62 </v>
   <v type="int" >       63 </v>
   <v type="int" >       64 </v>
   <v type="int" >       65 </v>
   <v type="int" >       66 </v>
   <v type="int" >       67 </v>
   <v type="int" >       68 </v>
   <v type="int" >       69 </v>
   <v type="int" >       70 </v>
   <v type="int" >       71 </v>
   <v type="int" >       72 </v>
   <v type="int" >       73 </v>
   <v type="int" >       74 </v>
   <v type="int" >       75 </v>
   <v type="int" >       76 </v>
   <v type="int" >       77 </v>
   <v type="int" >       78 </v>
   <v type="int" >       79 </v>
   <v type="int" >       80 </v>
   <v type="int" >       81 </v>
   <v type="int" >       82 </v>
   <v type="int" >       83 </v>
   <v type="int" >       84 </v>
   <v type="int" >       85 </v>
   <v type="int" >       86 </v>
   <v type="int" >       87 </v>
   <v type="int" >       88 </v>
   <v type="int" >       89 </v>
   <v type="int" >       90 </v>
   <v type="int" >       91 </v>
   <v type="int" >       92 </v>
   <v type="int" >       93 </v>
   <v type="int" >       94 </v>
   <v type="int" >       95 </v>
   <v type="int" >       96 </v>
   <v type="int" >       97 </v>
   <v type="int" >       98 </v>
   <v type="int" >       99 </v>
   <v type="int" >      100 </v>
   <v type="int" >      101 </v>
   <v type="int" >      102 </v>
   <v type="int" >      103 </v>
   <v type="int" >      104 </v>
   <v type="int" >      105 </v>
   <v type="int" >      106 </v>
   <v type="int" >      107 </v>
   <v type="int" >      108 </v>
   <v type="int" >      109 </v>
   <v type="int" >      110 </v>
   <v type="int" >      111 </v>
   <v type="int" >      112 </v>
   <v type="int" >      113 </v>
   <v type="int" >      114 </v>
   <v type="int" >      115 </v>
   <v type="int" >      116 </v>
   <v type="int" >      117 </v>
   <v type="int" >      118 </v>
   <v type="int" >      119 </v>
   <v type="int" >      120 </v>
   <v type="int" >      121 </v>
   <v type="int" >      122 </v>
   <v type="int" >      123 </v>
   <v type="int" >      124 </v>
   <v type="int" >      125 </v>
   <v type="int" >      126 </v>
   <v type="int" >      127 </v>
   <v type="int" >      128 </v>
   <v type="int" >      129 </v>
   <v type="int" >      130 </v>
   <v type="int" >      131 </v>
   <v type="int" >      132 </v>
   <v type="int" >      133 </v>
   <v type="int" >      134 </v>
   <v type="int" >      135 </v>
   <v type="int" >      136 </v>
   <v type="int" >      137 </v>
   <v type="int" >      138 </v>
   <v type="int" >      139 </v>
   <v type="int" >      140 </v>
   <v type="int" >      141 </v>
   <v type="int" >      142 </v>
   <v type="int" >      143 </v>
   <v type="int" >      144 </v>
   <v type="int" >      145 </v>
   <v type="int" >      146 </v>
   <v type="int" >      147 </v>
   <v type="int" >      148 </v>
   <v type="int" >      149 </v>
   <v type="int" >      150 </v>
   <v type="int" >      151 </v>
   <v type="int" >      152 </v>
   <v type="int" >      153 </v>
   <v type="int" >      154 </v>
   <v type="int" >      155 </v>
   <v type="int" >      156 </v>
   <v type="int" >      157 </v>
   <v type="int" >      158 </v>
   <v type="int" >      159 </v>
   <v type="int" >      160 </v>
   <v type="int" >      161 </v>
   <v type="int" >      162 </v>
   <v type="int" >      163 </v>
   <v type="int" >      164 </v>
   <v type="int" >      165 </v>
   <v type="int" >      166 </v>
   <v type="int" >      167 </v>
   <v type="int" >      168 </v>
   <v type="int" >      169 </v>
   <v type="int" >      170 </v>
   <v type="int" >      171 </v>
   <v type="int" >      172 </v>
   <v type="int" >      173 </v>
   <v type="int" >      174 </v>
   <v type="int" >      175 </v>
   <v type="int" >      176 </v>
   <v type="int" >      177 </v>
   <v type="int" >      178 </v>
   <v type="int" >      179 </v>
   <v type="int" >      180 </v>
   <v type="int" >      181 </v>
   <v type="int" >      182 </v>
   <v type="int" >      183 </v>
   <v type="int" >      184 </v>
   <v type="int" >      185 </v>
   <v type="int" >      186 </v>
   <v type="int" >      187 </v>
   <v type="int" >      188 </v>
   <v type="int" >      189 </v>
   <v type="int" >      190 </v>
   <v type="int" >      191 </v>
   <v type="int" >      192 </v>
   <v type="int" >      193 </v>
   <v type="int" >      194 </v>
   <v type="int" >      195 </v>
   <v type="int" >      196 </v>
   <v type="int" >      197 </v>
   <v type="int" >      198 </v>
   <v type="int" >      199 </v>
   <v type="int" >      200 </v>
   <v type="int" >      201 </v>
   <v type="int" >      202 </v>
   <v type="int" >      203 </v>
   <v type="int" >      204 </v>
   <v type="int" >      205 </v>
   <v type="int" >      206 </v>
   <v type="int" >      207 </v>
   <v type="int" >      208 </v>
   <v type="int" >      209 </v>
   <v type="int" >      210 </v>
   <v type="int" >      211 </v>
   <v type="int" >      212 </v>
   <v type="int" >      213 </v>
   <v type="int" >      214 </v>
   <v type="int" >      215 </v>
   <v type="int" >      216 </v>
   <v type="int" >      217 </v>
   <v type="int" >      218 </v>
   <v type="int" >      219 </v>
   <v type="int" >      220 </v>
   <v type="int" >      221 </v>
   <v type="int" >      222 </v>
   <v type="int" >      223 </v>
   <v type="int" >      224 </v>
   <v type="int" >      225 </v>
   <v type="int" >      226 </v>
   <v type="int" >      227 </v>
   <v type="int" >      228 </v>
   <v type="int" >      229 </v>
   <v type="int" >      230 </v>
   <v type="int" >      231 </v>
   <v type="int" >      232 </v>
   <v type="int" >      233 </v>
   <v type="int" >      234 </v>
   <v type="int" >      235 </v>
   <v type="int" >      236 </v>
   <v type="int" >      237 </v>
   <v type="int" >      238 </v>
   <v type="int" >      239 </v>
   <v type="int" >      240 </v>
   <v type="int" >      241 </v>
   <v type="int" >      242 </v>
   <v type="int" >      243 </v>
   <v type="int" >      244 </v>
   <v type="int" >      245 </v>
   <v type="int" >      246 </v>
   <v type="int" >      247 </v>
   <v type="int" >      248 </v>
   <v type="int" >      249 </v>
   <v type="int" >      250 </v>
   <v type="int" >      251 </v>
   <v type="int" >      252 </v>
   <v type="int" >      253 </v>
   <v type="int" >      254 </v>
   <v type="int" >      255 </v>
   <v type="int" >      256 </v>
   <v type="int" >      257 </v>
   <v type="int" >      258 </v>
   <v type="int" >      259 </v>
   <v type="int" >      260 </v>
   <v type="int" >      261 </v>
   <v type="int" >      262 </v>
   <v type="int" >      263 </v>
   <v type="int" >      264 </v>
   <v type="int" >      265 </v>
   <v type="int" >      266 </v>
   <v type="int" >      267 </v>
   <v type="int" >      268 </v>
  </varray>
 </primitive_cell>
 <kpoints>
  <generation param="Gamma">
   <v type="int" name="divisions">       2        1        1 </v>
   <v name="usershift">      0.00000000       0.00000000       0.00000000 </v>
   <v name="genvec1">      0.50000000       0.00000000       0.00000000 </v>
   <v name="genvec2">      0.00000000       1.00000000       0.00000000 </v>
   <v name="genvec3">      0.00000000       0.00000000       1.00000000 </v>
   <v name="shift">      0.00000000       0.00000000       0.00000000 </v>
  </generation>
  <varray name="kpointlist" >
   <v>       0.00000000       0.00000000       0.00000000 </v>
   <v>       0.50000000       0.00000000       0.00000000 </v>
  </varray>
  <varray name="weights" >
   <v>       0.50000000 </v>
   <v>       0.50000000 </v>
  </varray>
 </kpoints>
 <parameters>
  <separator name="general" >
   <i type="string" name="SYSTEM">unknown system</i>
   <i type="logical" name="LCOMPAT"> F  </i>
  </separator>
  <separator name="electronic" >
   <i type="string" name="PREC">normal</i>
   <i name="ENMAX">    400.00000000</i>
   <i name="ENAUG">    605.39200000</i>
   <i name="EDIFF">      0.00000001</i>
   <i type="int" name="IALGO">    68</i>
   <i type="int" name="IWAVPR">    10</i>
   <i type="int" name="NBANDS">   448</i>
   <i type="int" name="NBANDSLOW">    -1</i>
   <i type="int" name="NBANDSHIGH">    -1</i>
   <i name="NELECT">    620.00000000</i>
   <i type="int" name="TURBO">     0</i>
   <i type="int" name="IRESTART">     0</i>
   <i type="int" name="NREBOOT">     0</i>
   <i type="int" name="NMIN">     0</i>
   <i name="EREF">      0.00000000</i>
   <separator name="electronic smearing" >
    <i type="int" name="ISMEAR">     0</i>
    <i name="SIGMA">      0.10000000</i>
    <i name="KSPACING">      0.50000000</i>
    <i type="logical" name="KGAMMA"> T  </i>
    <i type="logical" name="KBLOWUP"> T  </i>
   </separator>
   <separator name="electronic projectors" >
    <i type="logical" name="LREAL"> T  </i>
    <v name="ROPT">     -0.00050000     -0.00050000     -0.00050000</v>
    <i type="int" name="LMAXPAW">  -100</i>
    <i type="int" name="LMAXMIX">     6</i>
    <i type="logical" name="NLSPLINE"> F  </i>
   </separator>
   <separator name="electronic startup" >
    <i type="int" name="ISTART">     0</i>
    <i type="int" name="ICHARG">     2</i>
    <i type="int" name="INIWAV">     1</i>
   </separator>
   <separator name="electronic spin" >
    <i type="int" name="ISPIN">     1</i>
    <i type="logical" name="LNONCOLLINEAR"> F  </i>
    <v name="MAGMOM">      1.00000000      1.00000000      1.00000000      1.00000000      1.00000000      1.00000000      1.00000000      1.00000000      1.00000000      1.00000000      1.00000000      1.00000000      1.00000000      1.00000000      1.00000000      1.00000000      1.00000000      1.00000000      1.00000000      1.00000000
      1.00000000      1.00000000      1.00000000      1.00000000      1.00000000      1.00000000      1.00000000      1.00000000      1.00000000      1.00000000      1.00000000      1.00000000      1.00000000      1.00000000      1.00000000      1.00000000      1.00000000      1.00000000      1.00000000      1.00000000
      1.00000000      1.00000000      1.00000000      1.00000000      1.00000000      1.00000000      1.00000000      1.00000000      1.00000000      1.00000000      1.00000000      1.00000000      1.00000000      1.00000000      1.00000000      1.00000000      1.00000000      1.00000000      1.00000000      1.00000000
      1.00000000      1.00000000      1.00000000      1.00000000      1.00000000      1.00000000      1.00000000      1.00000000      1.00000000      1.00000000      1.00000000      1.00000000      1.00000000      1.00000000      1.00000000      1.00000000      1.00000000      1.00000000      1.00000000      1.00000000
      1.00000000      1.00000000      1.00000000      1.00000000      1.00000000      1.00000000      1.00000000      1.00000000      1.00000000      1.00000000      1.00000000      1.00000000      1.00000000      1.00000000      1.00000000      1.00000000      1.00000000      1.00000000      1.00000000      1.00000000
      1.00000000      1.00000000      1.00000000      1.00000000      1.00000000      1.00000000      1.00000000      1.00000000      1.00000000      1.00000000      1.00000000      1.00000000      1.00000000      1.00000000      1.00000000      1.00000000      1.00000000      1.00000000      1.00000000      1.00000000
      1.00000000      1.00000000      1.00000000      1.00000000      1.00000000      1.00000000      1.00000000      1.00000000      1.00000000      1.00000000      1.00000000      1.00000000      1.00000000      1.00000000      1.00000000      1.00000000      1.00000000      1.00000000      1.00000000      1.00000000
      1.00000000      1.00000000      1.00000000      1.00000000      1.00000000      1.00000000      1.00000000      1.00000000      1.00000000      1.00000000      1.00000000      1.00000000      1.00000000      1.00000000      1.00000000      1.00000000      1.00000000      1.00000000      1.00000000      1.00000000
      1.00000000      1.00000000      1.00000000      1.00000000      1.00000000      1.00000000      1.00000000      1.00000000      1.00000000      1.00000000      1.00000000      1.00000000      1.00000000      1.00000000      1.00000000      1.00000000      1.00000000      1.00000000      1.00000000      1.00000000
      1.00000000      1.00000000      1.00000000      1.00000000      1.00000000      1.00000000      1.00000000      1.00000000      1.00000000      1.00000000      1.00000000      1.00000000      1.00000000      1.00000000      1.00000000      1.00000000      1.00000000      1.00000000      1.00000000      1.00000000
      1.00000000      1.00000000      1.00000000      1.00000000      1.00000000      1.00000000      1.00000000      1.00000000      1.00000000      1.00000000      1.00000000      1.00000000      1.00000000      1.00000000      1.00000000      1.00000000      1.00000000      1.00000000      1.00000000      1.00000000
      1.00000000      1.00000000      1.00000000      1.00000000      1.00000000      1.00000000      1.00000000      1.00000000      1.00000000      1.00000000      1.00000000      1.00000000      1.00000000      1.00000000      1.00000000      1.00000000      1.00000000      1.00000000      1.00000000      1.00000000
      1.00000000      1.00000000      1.00000000      1.00000000      1.00000000      1.00000000      1.00000000      1.00000000      1.00000000      1.00000000      1.00000000      1.00000000      1.00000000      1.00000000      1.00000000      1.00000000      1.00000000      1.00000000      1.00000000      1.00000000
      1.00000000      1.00000000      1.00000000      1.00000000      1.00000000      1.00000000      1.00000000      1.00000000</v>
    <i name="NUPDOWN">     -1.00000000</i>
    <i type="logical" name="LSORBIT"> F  </i>
    <v name="SAXIS">      0.00000000      0.00000000      1.00000000</v>
    <i type="logical" name="LSPIRAL"> F  </i>
    <v name="QSPIRAL">      0.00000000      0.00000000      0.00000000</v>
    <i type="logical" name="LZEROZ"> F  </i>
   </separator>
   <separator name="electronic exchange-correlation" >
    <i type="logical" name="LASPH"> T  </i>
    <i type="logical" name="LMETAGGA"> F  </i>
   </separator>
   <separator name="electronic convergence" >
    <i type="int" name="NELM">   150</i>
    <i type="int" name="NELMDL">     0</i>
    <i type="int" name="NELMIN">     2</i>
    <i name="ENINI">    400.00000000</i>
    <separator name="electronic convergence detail" >
     <i type="logical" name="LDIAG"> T  </i>
     <i type="logical" name="LSUBROT"> F  </i>
     <i name="WEIMIN">      0.00000000</i>
     <i name="EBREAK">      0.00000000</i>
     <i name="DEPER">      0.30000000</i>
     <i type="int" name="NRMM">     4</i>
     <i name="TIME">      0.40000000</i>
    </separator>
   </separator>
   <separator name="electronic mixer" >
    <i name="AMIX">      0.40000000</i>
    <i name="BMIX">      1.00000000</i>
    <i name="AMIN">      0.01000000</i>
    <i name="AMIX_MAG">      1.60000000</i>
    <i name="BMIX_MAG">      1.00000000</i>
    <separator name="electronic mixer details" >
     <i type="int" name="IMIX">     4</i>
     <i type="logical" name="MIXFIRST"> F  </i>
     <i type="int" name="MAXMIX">   -45</i>
     <i name="WC">    100.00000000</i>
     <i type="int" name="INIMIX">     1</i>
     <i type="int" name="MIXPRE">     1</i>
     <i type="int" name="MREMOVE">     5</i>
    </separator>
   </separator>
   <separator name="electronic dipolcorrection" >
    <i type="logical" name="LDIPOL"> F  </i>
    <i type="logical" name="LMONO"> F  </i>
    <i type="int" name="IDIPOL">     0</i>
    <i name="EPSILON">      1.00000000</i>
    <v name="DIPOL">   -100.00000000   -100.00000000   -100.00000000</v>
    <i name="EFIELD">      0.00000000</i>
   </separator>
  </separator>
  <separator name="grids" >
   <i type="int" name="NGX">    64</i>
   <i type="int" name="NGY">    90</i>
   <i type="int" name="NGZ">   216</i>
   <i type="int" name="NGXF">   128</i>
   <i type="int" name="NGYF">   180</i>
   <i type="int" name="NGZF">   432</i>
   <i type="logical" name="ADDGRID"> F  </i>
  </separator>
  <separator name="ionic" >
   <i type="int" name="NSW">     0</i>
   <i type="int" name="IBRION">    -1</i>
   <i type="int" name="MDALGO">     0</i>
   <i type="int" name="ISIF">     3</i>
   <i name="PSTRESS">      0.00000000</i>
   <i name="EDIFFG">     -0.01000000</i>
   <i type="int" name="NFREE">     0</i>
   <i name="POTIM">      0.50000000</i>
   <i name="SMASS">     -3.00000000</i>
   <i name="SCALEE">      1.00000000</i>
  </separator>
  <separator name="ionic md" >
   <i name="TEBEG">      0.00010000</i>
   <i name="TEEND">      0.00010000</i>
   <i type="int" name="NBLOCK">     1</i>
   <i type="int" name="KBLOCK">     1</i>
   <i type="int" name="NPACO">   256</i>
   <i name="APACO">     16.00000000</i>
  </separator>
  <separator name="symmetry" >
   <i type="int" name="ISYM">     2</i>
   <i name="SYMPREC">      0.00001000</i>
  </separator>
  <separator name="dos" >
   <i type="int" name="LORBIT">     0</i>
   <v name="RWIGS">     -1.00000000     -1.00000000     -1.00000000</v>
   <i type="int" name="NEDOS">   301</i>
   <i name="EMIN">     10.00000000</i>
   <i name="EMAX">    -10.00000000</i>
   <i name="EFERMI">      0.00000000</i>
  </separator>
  <separator name="writing" >
   <i type="int" name="NWRITE">     1</i>
   <i type="logical" name="LWAVE"> F  </i>
   <i type="logical" name="LDOWNSAMPLE"> F  </i>
   <i type="logical" name="LCHARG"> F  </i>
   <i type="logical" name="LPARD"> F  </i>
   <i type="logical" name="LVTOT"> F  </i>
   <i type="logical" name="LVHAR"> F  </i>
   <i type="logical" name="LELF"> F  </i>
   <i type="logical" name="LOPTICS"> F  </i>
   <v name="STM">      0.00000000      0.00000000      0.00000000      0.00000000      0.00000000      0.00000000      0.00000000</v>
  </separator>
  <separator name="performance" >
   <i type="int" name="NPAR">     8</i>
   <i type="int" name="NSIM">     4</i>
   <i type="int" name="NBLK">    -1</i>
   <i type="logical" name="LPLANE"> T  </i>
   <i type="logical" name="LSCALAPACK"> T  </i>
   <i type="logical" name="LSCAAWARE"> F  </i>
   <i type="logical" name="LSCALU"> F  </i>
   <i type="logical" name="LASYNC"> F  </i>
   <i type="logical" name="LORBITALREAL"> F  </i>
  </separator>
  <separator name="miscellaneous" >
   <i type="int" name="IDIOT">     3</i>
   <i type="int" name="PHON_NSTRUCT">    -1</i>
   <i type="logical" name="LMUSIC"> F  </i>
   <v name="POMASS">     35.45300000     22.99000000     16.00000000</v>
   <v name="DARWINR">      0.00000000      0.00000000      0.00000000</v>
   <v name="DARWINV">      1.00000000      1.00000000      1.00000000</v>
   <i type="logical" name="LCORR"> T  </i>
  </separator>
  <i type="logical" name="GGA_COMPAT"> T  </i>
  <i type="logical" name="LBERRY"> F  </i>
  <i type="int" name="ICORELEVEL">     0</i>
  <i type="logical" name="LDAU"> F  </i>
  <i type="int" name="I_CONSTRAINED_M">     0</i>
  <separator name="electronic exchange-correlation" >
   <i type="string" name="GGA">PE</i>
   <i type="int" name="VOSKOWN">     0</i>
   <i type="logical" name="LHFCALC"> F  </i>
   <i type="string" name="PRECFOCK"></i>
   <i type="logical" name="LSYMGRAD"> F  </i>
   <i type="logical" name="LHFONE"> F  </i>
   <i type="logical" name="LRHFCALC"> F  </i>
   <i type="logical" name="LTHOMAS"> F  </i>
   <i type="logical" name="LMODELHF"> F  </i>
   <i type="logical" name="LFOCKACE"> F  </i>
   <i name="ENCUT4O">     -1.00000000</i>
   <i type="int" name="EXXOEP">     0</i>
   <i type="int" name="FOURORBIT">     0</i>
   <i name="AEXX">      0.00000000</i>
   <i name="HFALPHA">      0.00000000</i>
   <i name="MCALPHA">      0.00000000</i>
   <i name="ALDAX">      1.00000000</i>
   <i name="AGGAX">      1.00000000</i>
   <i name="ALDAC">      1.00000000</i>
   <i name="AGGAC">      1.00000000</i>
   <i type="int" name="NKREDX">     1</i>
   <i type="int" name="NKREDY">     1</i>
   <i type="int" name="NKREDZ">     1</i>
   <i type="logical" name="SHIFTRED"> F  </i>
   <i type="logical" name="ODDONLY"> F  </i>
   <i type="logical" name="EVENONLY"> F  </i>
   <i type="int" name="LMAXFOCK">     0</i>
   <i type="int" name="NMAXFOCKAE">     0</i>
   <i type="logical" name="LFOCKAEDFT"> F  </i>
   <i name="HFSCREEN">      0.00000000</i>
   <i name="HFSCREENC">      0.00000000</i>
   <i type="int" name="NBANDSGWLOW">     0</i>
  </separator>
  <separator name="vdW DFT" >
   <i type="logical" name="LUSE_VDW"> F  </i>
   <i name="Zab_VDW">     -0.84910000</i>
   <i name="PARAM1">      0.12340000</i>
   <i name="PARAM2">      1.00000000</i>
   <i name="PARAM3">      0.00000000</i>
  </separator>
  <separator name="model GW" >
   <i type="int" name="MODEL_GW">     0</i>
   <i name="MODEL_EPS0">     15.39113604</i>
   <i name="MODEL_ALPHA">      1.00000000</i>
  </separator>
  <separator name="linear response parameters" >
   <i type="logical" name="LEPSILON"> F  </i>
   <i type="logical" name="LRPA"> F  </i>
   <i type="logical" name="LNABLA"> F  </i>
   <i type="logical" name="LVEL"> F  </i>
   <i type="int" name="KINTER">     0</i>
   <i name="CSHIFT">      0.10000000</i>
   <i name="OMEGAMAX">     -1.00000000</i>
   <i name="DEG_THRESHOLD">      0.00200000</i>
   <i name="RTIME">     -0.10000000</i>
   <i name="WPLASMAI">      0.00000000</i>
   <v name="DFIELD">      0.00000000      0.00000000      0.00000000</v>
   <v name="WPLASMA">      0.00000000      0.00000000      0.00000000      0.00000000      0.00000000      0.00000000      0.00000000      0.00000000      0.00000000</v>
  </separator>
  <separator name="orbital magnetization" >
   <i type="logical" name="NUCIND"> F  </i>
   <v name="MAGPOS">      0.00000000      0.00000000      0.00000000</v>
   <i type="logical" name="LNICSALL"> T  </i>
   <i type="logical" name="ORBITALMAG"> F  </i>
   <i type="logical" name="LMAGBLOCH"> F  </i>
   <i type="logical" name="LCHIMAG"> F  </i>
   <i type="logical" name="LGAUGE"> T  </i>
   <i type="int" name="MAGATOM">     0</i>
   <v name="MAGDIPOL">      0.00000000      0.00000000      0.00000000</v>
   <v name="AVECCONST">      0.00000000      0.00000000      0.00000000</v>
  </separator>
  <separator name="response functions" >
   <i type="logical" name="LFINITE_TEMPERATURE"> F  </i>
   <i type="logical" name="LADDER"> F  </i>
   <i type="logical" name="LRPAFORCE"> F  </i>
   <i type="logical" name="LFXC"> F  </i>
   <i type="logical" name="LHARTREE"> T  </i>
   <i type="int" name="IBSE">     0</i>
   <v type="int" name="KPOINT">    -1     0     0     0</v>
   <i type="logical" name="LTCTC"> F  </i>
   <i type="logical" name="LTCTE"> F  </i>
   <i type="logical" name="LTETE"> F  </i>
   <i type="logical" name="LTRIPLET"> F  </i>
   <i type="logical" name="LFXCEPS"> F  </i>
   <i type="logical" name="LFXHEG"> F  </i>
   <i type="int" name="NATURALO">     2</i>
   <i type="logical" name="LHOLEGF"> F  </i>
   <i type="logical" name="L2ORDER"> F  </i>
   <i type="logical" name="LDMP1"> F  </i>
   <i type="logical" name="LMP2LT"> F  </i>
   <i type="logical" name="LSMP2LT"> F  </i>
   <i type="logical" name="LGWLF"> F  </i>
   <i name="ENCUTGW">     -2.00000000</i>
   <i name="ENCUTGWSOFT">     -2.00000000</i>
   <i name="ENCUTLF">     -1.00000000</i>
   <i type="logical" name="LESF_SPLINES"> F  </i>
   <i type="int" name="LMAXMP2">    -1</i>
   <i name="SCISSOR">      0.00000000</i>
   <i type="int" name="NOMEGA">     0</i>
   <i type="int" name="NOMEGAR">     0</i>
   <i type="int" name="NBANDSGW">    -1</i>
   <i type="int" name="NBANDSO">    -1</i>
   <i type="int" name="NBANDSV">    -1</i>
   <i type="int" name="NELM">   150</i>
   <i type="int" name="NELMHF">     1</i>
   <i type="int" name="DIM">     3</i>
   <i type="int" name="IESPILON">     4</i>
   <i type="int" name="ANTIRES">     0</i>
   <i name="OMEGAMAX">    -30.00000000</i>
   <i name="OMEGAMIN">    -30.00000000</i>
   <i name="OMEGATL">   -200.00000000</i>
   <i type="int" name="OMEGAGRID">     0</i>
   <i name="CSHIFT">     -0.10000000</i>
   <i type="logical" name="LSELFENERGY"> F  </i>
   <i type="logical" name="LSPECTRAL"> F  </i>
   <i type="logical" name="LSPECTRALGW"> F  </i>
   <i type="logical" name="LSINGLES"> F  </i>
   <i type="logical" name="LFERMIGW"> F  </i>
   <i type="logical" name="ODDONLYGW"> F  </i>
   <i type="logical" name="EVENONLYGW"> F  </i>
   <i type="int" name="NKREDLFX">     1</i>
   <i type="int" name="NKREDLFY">     1</i>
   <i type="int" name="NKREDLFZ">     1</i>
   <i type="int" name="MAXMEM">  2800</i>
   <i type="int" name="TELESCOPE">     0</i>
   <i type="int" name="NTAUPAR">    -1</i>
   <i type="int" name="NOMEGAPAR">    -1</i>
   <i name="DAMP_NEWTON">      0.80000001</i>
   <i name="LAMBDA">      1.00000000</i>
  </separator>
  <separator name="External order field" >
   <i name="OFIELD_KAPPA">      0.00000000</i>
   <v name="OFIELD_K">      0.00000000      0.00000000      0.00000000</v>
   <i name="OFIELD_Q6_NEAR">      0.00000000</i>
   <i name="OFIELD_Q6_FAR">      0.00000000</i>
   <i name="OFIELD_A">      0.00000000</i>
  </separator>
 </parameters>
 <atominfo>
  <atoms>     268 </atoms>
  <types>       3 </types>
  <array name="atoms" >
   <dimension dim="1">ion</dimension>
   <field type="string">element</field>
   <field type="int">atomtype</field>
   <set>
    <rc><c>Cl</c><c>   1</c></rc>
    <rc><c>Cl</c><c>   1</c></rc>
    <rc><c>Cl</c><c>   1</c></rc>
    <rc><c>Cl</c><c>   1</c></rc>
    <rc><c>Cl</c><c>   1</c></rc>
    <rc><c>Cl</c><c>   1</c></rc>
    <rc><c>Cl</c><c>   1</c></rc>
    <rc><c>Cl</c><c>   1</c></rc>
    <rc><c>Cl</c><c>   1</c></rc>
    <rc><c>Cl</c><c>   1</c></rc>
    <rc><c>Cl</c><c>   1</c></rc>
    <rc><c>Cl</c><c>   1</c></rc>
    <rc><c>Cl</c><c>   1</c></rc>
    <rc><c>Cl</c><c>   1</c></rc>
    <rc><c>Cl</c><c>   1</c></rc>
    <rc><c>Cl</c><c>   1</c></rc>
    <rc><c>Cl</c><c>   1</c></rc>
    <rc><c>Cl</c><c>   1</c></rc>
    <rc><c>Cl</c><c>   1</c></rc>
    <rc><c>Cl</c><c>   1</c></rc>
    <rc><c>Cl</c><c>   1</c></rc>
    <rc><c>Cl</c><c>   1</c></rc>
    <rc><c>Cl</c><c>   1</c></rc>
    <rc><c>Cl</c><c>   1</c></rc>
    <rc><c>Cl</c><c>   1</c></rc>
    <rc><c>Cl</c><c>   1</c></rc>
    <rc><c>Cl</c><c>   1</c></rc>
    <rc><c>Cl</c><c>   1</c></rc>
    <rc><c>Cl</c><c>   1</c></rc>
    <rc><c>Cl</c><c>   1</c></rc>
    <rc><c>Cl</c><c>   1</c></rc>
    <rc><c>Cl</c><c>   1</c></rc>
    <rc><c>Na</c><c>   2</c></rc>
    <rc><c>Na</c><c>   2</c></rc>
    <rc><c>Na</c><c>   2</c></rc>
    <rc><c>Na</c><c>   2</c></rc>
    <rc><c>Na</c><c>   2</c></rc>
    <rc><c>Na</c><c>   2</c></rc>
    <rc><c>Na</c><c>   2</c></rc>
    <rc><c>Na</c><c>   2</c></rc>
    <rc><c>Na</c><c>   2</c></rc>
    <rc><c>Na</c><c>   2</c></rc>
    <rc><c>Na</c><c>   2</c></rc>
    <rc><c>Na</c><c>   2</c></rc>
    <rc><c>Na</c><c>   2</c></rc>
    <rc><c>Na</c><c>   2</c></rc>
    <rc><c>Na</c><c>   2</c></rc>
    <rc><c>Na</c><c>   2</c></rc>
    <rc><c>Na</c><c>   2</c></rc>
    <rc><c>Na</c><c>   2</c></rc>
    <rc><c>Na</c><c>   2</c></rc>
    <rc><c>Na</c><c>   2</c></rc>
    <rc><c>Na</c><c>   2</c></rc>
    <rc><c>Na</c><c>   2</c></rc>
    <rc><c>Na</c><c>   2</c></rc>
    <rc><c>Na</c><c>   2</c></rc>
    <rc><c>Na</c><c>   2</c></rc>
    <rc><c>Na</c><c>   2</c></rc>
    <rc><c>Na</c><c>   2</c></rc>
    <rc><c>Na</c><c>   2</c></rc>
    <rc><c>Na</c><c>   2</c></rc>
    <rc><c>Na</c><c>   2</c></rc>
    <rc><c>Na</c><c>   2</c></rc>
    <rc><c>Na</c><c>   2</c></rc>
    <rc><c>Na</c><c>   2</c></rc>
    <rc><c>Na</c><c>   2</c></rc>
    <rc><c>Na</c><c>   2</c></rc>
    <rc><c>Na</c><c>   2</c></rc>
    <rc><c>Na</c><c>   2</c></rc>
    <rc><c>Na</c><c>   2</c></rc>
    <rc><c>Na</c><c>   2</c></rc>
    <rc><c>Na</c><c>   2</c></rc>
    <rc><c>Na</c><c>   2</c></rc>
    <rc><c>Na</c><c>   2</c></rc>
    <rc><c>Na</c><c>   2</c></rc>
    <rc><c>Na</c><c>   2</c></rc>
    <rc><c>Na</c><c>   2</c></rc>
    <rc><c>Na</c><c>   2</c></rc>
    <rc><c>Na</c><c>   2</c></rc>
    <rc><c>Na</c><c>   2</c></rc>
    <rc><c>Na</c><c>   2</c></rc>
    <rc><c>Na</c><c>   2</c></rc>
    <rc><c>Na</c><c>   2</c></rc>
    <rc><c>Na</c><c>   2</c></rc>
    <rc><c>Na</c><c>   2</c></rc>
    <rc><c>Na</c><c>   2</c></rc>
    <rc><c>Na</c><c>   2</c></rc>
    <rc><c>Na</c><c>   2</c></rc>
    <rc><c>Na</c><c>   2</c></rc>
    <rc><c>Na</c><c>   2</c></rc>
    <rc><c>Na</c><c>   2</c></rc>
    <rc><c>Na</c><c>   2</c></rc>
    <rc><c>Na</c><c>   2</c></rc>
    <rc><c>Na</c><c>   2</c></rc>
    <rc><c>Na</c><c>   2</c></rc>
    <rc><c>Na</c><c>   2</c></rc>
    <rc><c>Na</c><c>   2</c></rc>
    <rc><c>Na</c><c>   2</c></rc>
    <rc><c>Na</c><c>   2</c></rc>
    <rc><c>Na</c><c>   2</c></rc>
    <rc><c>Na</c><c>   2</c></rc>
    <rc><c>Na</c><c>   2</c></rc>
    <rc><c>Na</c><c>   2</c></rc>
    <rc><c>Na</c><c>   2</c></rc>
    <rc><c>Na</c><c>   2</c></rc>
    <rc><c>Na</c><c>   2</c></rc>
    <rc><c>Na</c><c>   2</c></rc>
    <rc><c>Na</c><c>   2</c></rc>
    <rc><c>Na</c><c>   2</c></rc>
    <rc><c>Na</c><c>   2</c></rc>
    <rc><c>Na</c><c>   2</c></rc>
    <rc><c>Na</c><c>   2</c></rc>
    <rc><c>Na</c><c>   2</c></rc>
    <rc><c>Na</c><c>   2</c></rc>
    <rc><c>Na</c><c>   2</c></rc>
    <rc><c>Na</c><c>   2</c></rc>
    <rc><c>Na</c><c>   2</c></rc>
    <rc><c>Na</c><c>   2</c></rc>
    <rc><c>Na</c><c>   2</c></rc>
    <rc><c>Na</c><c>   2</c></rc>
    <rc><c>Na</c><c>   2</c></rc>
    <rc><c>Na</c><c>   2</c></rc>
    <rc><c>Na</c><c>   2</c></rc>
    <rc><c>Na</c><c>   2</c></rc>
    <rc><c>Na</c><c>   2</c></rc>
    <rc><c>Na</c><c>   2</c></rc>
    <rc><c>Na</c><c>   2</c></rc>
    <rc><c>Na</c><c>   2</c></rc>
    <rc><c>Na</c><c>   2</c></rc>
    <rc><c>Na</c><c>   2</c></rc>
    <rc><c>Na</c><c>   2</c></rc>
    <rc><c>Na</c><c>   2</c></rc>
    <rc><c>Na</c><c>   2</c></rc>
    <rc><c>Na</c><c>   2</c></rc>
    <rc><c>Na</c><c>   2</c></rc>
    <rc><c>Na</c><c>   2</c></rc>
    <rc><c>Na</c><c>   2</c></rc>
    <rc><c>Na</c><c>   2</c></rc>
    <rc><c>Na</c><c>   2</c></rc>
    <rc><c>Na</c><c>   2</c></rc>
    <rc><c>Na</c><c>   2</c></rc>
    <rc><c>Na</c><c>   2</c></rc>
    <rc><c>Na</c><c>   2</c></rc>
    <rc><c>Na</c><c>   2</c></rc>
    <rc><c>Na</c><c>   2</c></rc>
    <rc><c>Na</c><c>   2</c></rc>
    <rc><c>Na</c><c>   2</c></rc>
    <rc><c>Na</c><c>   2</c></rc>
    <rc><c>Na</c><c>   2</c></rc>
    <rc><c>Na</c><c>   2</c></rc>
    <rc><c>Na</c><c>   2</c></rc>
    <rc><c>Na</c><c>   2</c></rc>
    <rc><c>Na</c><c>   2</c></rc>
    <rc><c>Na</c><c>   2</c></rc>
    <rc><c>Na</c><c>   2</c></rc>
    <rc><c>Na</c><c>   2</c></rc>
    <rc><c>Na</c><c>   2</c></rc>
    <rc><c>Na</c><c>   2</c></rc>
    <rc><c>Na</c><c>   2</c></rc>
    <rc><c>Na</c><c>   2</c></rc>
    <rc><c>Na</c><c>   2</c></rc>
    <rc><c>Na</c><c>   2</c></rc>
    <rc><c>Na</c><c>   2</c></rc>
    <rc><c>Na</c><c>   2</c></rc>
    <rc><c>Na</c><c>   2</c></rc>
    <rc><c>Na</c><c>   2</c></rc>
    <rc><c>Na</c><c>   2</c></rc>
    <rc><c>Na</c><c>   2</c></rc>
    <rc><c>Na</c><c>   2</c></rc>
    <rc><c>Na</c><c>   2</c></rc>
    <rc><c>Na</c><c>   2</c></rc>
    <rc><c>Na</c><c>   2</c></rc>
    <rc><c>Na</c><c>   2</c></rc>
    <rc><c>Na</c><c>   2</c></rc>
    <rc><c>Na</c><c>   2</c></rc>
    <rc><c>Na</c><c>   2</c></rc>
    <rc><c>Na</c><c>   2</c></rc>
    <rc><c>Na</c><c>   2</c></rc>
    <rc><c>Na</c><c>   2</c></rc>
    <rc><c>Na</c><c>   2</c></rc>
    <rc><c>Na</c><c>   2</c></rc>
    <rc><c>Na</c><c>   2</c></rc>
    <rc><c>Na</c><c>   2</c></rc>
    <rc><c>Na</c><c>   2</c></rc>
    <rc><c>Na</c><c>   2</c></rc>
    <rc><c>Na</c><c>   2</c></rc>
    <rc><c>Na</c><c>   2</c></rc>
    <rc><c>Na</c><c>   2</c></rc>
    <rc><c>Na</c><c>   2</c></rc>
    <rc><c>Na</c><c>   2</c></rc>
    <rc><c>Na</c><c>   2</c></rc>
    <rc><c>Na</c><c>   2</c></rc>
    <rc><c>Na</c><c>   2</c></rc>
    <rc><c>Na</c><c>   2</c></rc>
    <rc><c>Na</c><c>   2</c></rc>
    <rc><c>Na</c><c>   2</c></rc>
    <rc><c>Na</c><c>   2</c></rc>
    <rc><c>Na</c><c>   2</c></rc>
    <rc><c>Na</c><c>   2</c></rc>
    <rc><c>Na</c><c>   2</c></rc>
    <rc><c>Na</c><c>   2</c></rc>
    <rc><c>Na</c><c>   2</c></rc>
    <rc><c>Na</c><c>   2</c></rc>
    <rc><c>Na</c><c>   2</c></rc>
    <rc><c>Na</c><c>   2</c></rc>
    <rc><c>Na</c><c>   2</c></rc>
    <rc><c>Na</c><c>   2</c></rc>
    <rc><c>Na</c><c>   2</c></rc>
    <rc><c>Na</c><c>   2</c></rc>
    <rc><c>Na</c><c>   2</c></rc>
    <rc><c>Na</c><c>   2</c></rc>
    <rc><c>Na</c><c>   2</c></rc>
    <rc><c>Na</c><c>   2</c></rc>
    <rc><c>Na</c><c>   2</c></rc>
    <rc><c>Na</c><c>   2</c></rc>
    <rc><c>Na</c><c>   2</c></rc>
    <rc><c>Na</c><c>   2</c></rc>
    <rc><c>Na</c><c>   2</c></rc>
    <rc><c>Na</c><c>   2</c></rc>
    <rc><c>Na</c><c>   2</c></rc>
    <rc><c>Na</c><c>   2</c></rc>
    <rc><c>Na</c><c>   2</c></rc>
    <rc><c>Na</c><c>   2</c></rc>
    <rc><c>Na</c><c>   2</c></rc>
    <rc><c>Na</c><c>   2</c></rc>
    <rc><c>Na</c><c>   2</c></rc>
    <rc><c>Na</c><c>   2</c></rc>
    <rc><c>Na</c><c>   2</c></rc>
    <rc><c>Na</c><c>   2</c></rc>
    <rc><c>Na</c><c>   2</c></rc>
    <rc><c>Na</c><c>   2</c></rc>
    <rc><c>Na</c><c>   2</c></rc>
    <rc><c>Na</c><c>   2</c></rc>
    <rc><c>Na</c><c>   2</c></rc>
    <rc><c>Na</c><c>   2</c></rc>
    <rc><c>Na</c><c>   2</c></rc>
    <rc><c>O </c><c>   3</c></rc>
    <rc><c>O </c><c>   3</c></rc>
    <rc><c>O </c><c>   3</c></rc>
    <rc><c>O </c><c>   3</c></rc>
    <rc><c>O </c><c>   3</c></rc>
    <rc><c>O </c><c>   3</c></rc>
    <rc><c>O </c><c>   3</c></rc>
    <rc><c>O </c><c>   3</c></rc>
    <rc><c>O </c><c>   3</c></rc>
    <rc><c>O </c><c>   3</c></rc>
    <rc><c>O </c><c>   3</c></rc>
    <rc><c>O </c><c>   3</c></rc>
    <rc><c>O </c><c>   3</c></rc>
    <rc><c>O </c><c>   3</c></rc>
    <rc><c>O </c><c>   3</c></rc>
    <rc><c>O </c><c>   3</c></rc>
    <rc><c>O </c><c>   3</c></rc>
    <rc><c>O </c><c>   3</c></rc>
    <rc><c>O </c><c>   3</c></rc>
    <rc><c>O </c><c>   3</c></rc>
    <rc><c>O </c><c>   3</c></rc>
    <rc><c>O </c><c>   3</c></rc>
    <rc><c>O </c><c>   3</c></rc>
    <rc><c>O </c><c>   3</c></rc>
    <rc><c>O </c><c>   3</c></rc>
    <rc><c>O </c><c>   3</c></rc>
    <rc><c>O </c><c>   3</c></rc>
    <rc><c>O </c><c>   3</c></rc>
    <rc><c>O </c><c>   3</c></rc>
    <rc><c>O </c><c>   3</c></rc>
    <rc><c>O </c><c>   3</c></rc>
    <rc><c>O </c><c>   3</c></rc>
   </set>
  </array>
  <array name="atomtypes" >
   <dimension dim="1">type</dimension>
   <field type="int">atomspertype</field>
   <field type="string">element</field>
   <field>mass</field>
   <field>valence</field>
   <field type="string">pseudopotential</field>
   <set>
    <rc><c>  32</c><c>Cl</c><c>     35.45300000</c><c>      7.00000000</c><c>  PAW_PBE Cl 06Sep2000                  </c></rc>
    <rc><c> 204</c><c>Na</c><c>     22.99000000</c><c>      1.00000000</c><c>  PAW_PBE Na 08Apr2002                  </c></rc>
    <rc><c>  32</c><c>O </c><c>     16.00000000</c><c>      6.00000000</c><c>  PAW_PBE O 08Apr2002                   </c></rc>
   </set>
  </array>
 </atominfo>
 <structure name="initialpos" >
  <crystal>
   <varray name="basis" >
    <v>      -8.90732730       8.90732730       0.00000000 </v>
    <v>     -17.81465460       0.00000000       0.00000000 </v>
    <v>       0.00000000       0.00000000      43.32408542 </v>
   </varray>
   <i name="volume">   6874.70743266 </i>
   <varray name="rec_basis" >
    <v>       0.00000000       0.11226712       0.00000000 </v>
    <v>      -0.05613356      -0.05613356       0.00000000 </v>
    <v>       0.00000000       0.00000000       0.02308185 </v>
   </varray>
  </crystal>
  <varray name="positions" >
   <v>       0.20139970       0.02817878       0.08089449 </v>
   <v>       0.20140266       0.02817632       0.18585345 </v>
   <v>       0.20140379       0.02817673       0.29002354 </v>
   <v>       0.20140338       0.02817713       0.39305953 </v>
   <v>       0.20142290       0.27815757       0.08092430 </v>
   <v>       0.20140328       0.27817710       0.18585454 </v>
   <v>       0.20140338       0.27817730       0.28999929 </v>
   <v>       0.20140346       0.27817711       0.39312630 </v>
   <v>       0.20140135       0.52817649       0.08089507 </v>
   <v>       0.20140336       0.52817681       0.18585347 </v>
   <v>       0.20140378       0.52817686       0.29002349 </v>
   <v>       0.20140337       0.52817717       0.39305955 </v>
   <v>       0.20142283       0.77815658       0.08092431 </v>
   <v>       0.20140261       0.77817830       0.18585431 </v>
   <v>       0.20140984       0.77817208       0.28999394 </v>
   <v>       0.20140338       0.77817715       0.39312626 </v>
   <v>       0.70140151       0.02817665       0.08089496 </v>
   <v>       0.70140363       0.02817699       0.18585343 </v>
   <v>       0.70140401       0.02817681       0.29002355 </v>
   <v>       0.70140334       0.02817714       0.39305953 </v>
   <v>       0.70142268       0.27815667       0.08092433 </v>
   <v>       0.70140264       0.27817828       0.18585436 </v>
   <v>       0.70140973       0.27817213       0.28999393 </v>
   <v>       0.70140336       0.27817718       0.39312627 </v>
   <v>       0.70140012       0.52817867       0.08089462 </v>
   <v>       0.70140300       0.52817643       0.18585351 </v>
   <v>       0.70140379       0.52817690       0.29002349 </v>
   <v>       0.70140325       0.52817718       0.39305954 </v>
   <v>       0.70142360       0.77815689       0.08092436 </v>
   <v>       0.70140193       0.77817898       0.18585476 </v>
   <v>       0.70140985       0.77817201       0.28999397 </v>
   <v>       0.70140332       0.77817723       0.39312627 </v>
   <v>       0.45140053       0.02817552       0.08166890 </v>
   <v>       0.20118702       0.15315138       0.02889826 </v>
   <v>       0.45140876       0.02817302       0.18593021 </v>
   <v>       0.20138221       0.15442142       0.13380725 </v>
   <v>       0.45140462       0.02817660       0.29008523 </v>
   <v>       0.20121283       0.15296283       0.23805079 </v>
   <v>       0.45140620       0.02817492       0.39346826 </v>
   <v>       0.20137994       0.15228681       0.34241002 </v>
   <v>       0.45126732       0.15315033       0.02886170 </v>
   <v>       0.45140977       0.27817178       0.08169587 </v>
   <v>       0.20165755       0.40317837       0.02890170 </v>
   <v>       0.45404079       0.15181750       0.13367399 </v>
   <v>       0.45140515       0.27817558       0.18590010 </v>
   <v>       0.20142234       0.40193242       0.13380786 </v>
   <v>       0.45096880       0.15336578       0.23801492 </v>
   <v>       0.45140555       0.27817565       0.29012533 </v>
   <v>       0.20160014       0.40338358       0.23804923 </v>
   <v>       0.44969943       0.15401378       0.34230153 </v>
   <v>       0.45140535       0.27817534       0.39353456 </v>
   <v>       0.20142908       0.40406703       0.34240986 </v>
   <v>       0.45155269       0.40318605       0.02885236 </v>
   <v>       0.45140925       0.52817223       0.08166987 </v>
   <v>       0.20118873       0.65315130       0.02889793 </v>
   <v>       0.44876033       0.40453485       0.13367385 </v>
   <v>       0.45139353       0.52818213       0.18593190 </v>
   <v>       0.20138262       0.65442115       0.13380745 </v>
   <v>       0.45183990       0.40298846       0.23801558 </v>
   <v>       0.45140441       0.52817681       0.29008561 </v>
   <v>       0.20121166       0.65296266       0.23805142 </v>
   <v>       0.45310996       0.40233935       0.34230168 </v>
   <v>       0.45140625       0.52817486       0.39346841 </v>
   <v>       0.20137992       0.65228673       0.34241011 </v>
   <v>       0.45126826       0.65315024       0.02886206 </v>
   <v>       0.45139470       0.77818020       0.08169711 </v>
   <v>       0.20165744       0.90317890       0.02890190 </v>
   <v>       0.45405130       0.65181065       0.13367324 </v>
   <v>       0.45141146       0.77817392       0.18590088 </v>
   <v>       0.20141854       0.90192797       0.13381608 </v>
   <v>       0.45096990       0.65336544       0.23801554 </v>
   <v>       0.45140534       0.77817656       0.29012527 </v>
   <v>       0.20160040       0.90338367       0.23804958 </v>
   <v>       0.44969958       0.65401373       0.34230161 </v>
   <v>       0.45140535       0.77817539       0.39353455 </v>
   <v>       0.20142927       0.90406723       0.34240993 </v>
   <v>       0.45155191       0.90318628       0.02885241 </v>
   <v>       0.44876164       0.90453448       0.13367422 </v>
   <v>       0.45184009       0.90298904       0.23801481 </v>
   <v>       0.45310988       0.90233948       0.34230154 </v>
   <v>       0.95140910       0.02817239       0.08166982 </v>
   <v>       0.70118882       0.15315119       0.02889792 </v>
   <v>       0.95139349       0.02818213       0.18593188 </v>
   <v>       0.70138312       0.15442087       0.13380745 </v>
   <v>       0.95140455       0.02817664       0.29008560 </v>
   <v>       0.70121190       0.15296212       0.23805155 </v>
   <v>       0.95140630       0.02817485       0.39346841 </v>
   <v>       0.70137993       0.15228667       0.34241012 </v>
   <v>       0.95126845       0.15315010       0.02886209 </v>
   <v>       0.95139561       0.27817925       0.08169712 </v>
   <v>       0.70165753       0.40317876       0.02890192 </v>
   <v>       0.95405139       0.15181030       0.13367327 </v>
   <v>       0.95141288       0.27817263       0.18590088 </v>
   <v>       0.70141879       0.40192743       0.13381622 </v>
   <v>       0.95097087       0.15336479       0.23801570 </v>
   <v>       0.95140634       0.27817562       0.29012540 </v>
   <v>       0.70160083       0.40338347       0.23804962 </v>
   <v>       0.94969962       0.15401371       0.34230160 </v>
   <v>       0.95140549       0.27817525       0.39353456 </v>
   <v>       0.70142934       0.40406712       0.34240999 </v>
   <v>       0.95155208       0.40318621       0.02885241 </v>
   <v>       0.95140072       0.52817534       0.08166909 </v>
   <v>       0.70118712       0.65315142       0.02889826 </v>
   <v>       0.94875931       0.40453550       0.13367377 </v>
   <v>       0.95140865       0.52817307       0.18593048 </v>
   <v>       0.70138199       0.65442169       0.13380707 </v>
   <v>       0.95184027       0.40298874       0.23801539 </v>
   <v>       0.95140439       0.52817679       0.29008540 </v>
   <v>       0.70121275       0.65296191       0.23805161 </v>
   <v>       0.95311024       0.40233928       0.34230160 </v>
   <v>       0.95140642       0.52817480       0.39346836 </v>
   <v>       0.70138001       0.65228668       0.34241012 </v>
   <v>       0.95126722       0.65315033       0.02886174 </v>
   <v>       0.95140882       0.77817272       0.08169581 </v>
   <v>       0.70165760       0.90317842       0.02890167 </v>
   <v>       0.95404049       0.65181790       0.13367383 </v>
   <v>       0.95140370       0.77817688       0.18590010 </v>
   <v>       0.70142236       0.90193146       0.13380823 </v>
   <v>       0.95097042       0.65336508       0.23801574 </v>
   <v>       0.95140457       0.77817658       0.29012528 </v>
   <v>       0.70159610       0.90339221       0.23805050 </v>
   <v>       0.94969936       0.65401378       0.34230161 </v>
   <v>       0.95140544       0.77817531       0.39353456 </v>
   <v>       0.70142911       0.90406726       0.34240986 </v>
   <v>       0.95155262       0.90318613       0.02885231 </v>
   <v>       0.94875934       0.90453553       0.13367370 </v>
   <v>       0.95183982       0.90298872       0.23801558 </v>
   <v>       0.95310969       0.90233949       0.34230164 </v>
   <v>       0.19901631       0.05449019       0.49609238 </v>
   <v>       0.19860776       0.22159346       0.44978276 </v>
   <v>       0.19910000       0.05441495       0.59051999 </v>
   <v>       0.19918369       0.22107385       0.54135195 </v>
   <v>       0.19868318       0.05468821       0.68654228 </v>
   <v>       0.19885107       0.22125032       0.63920990 </v>
   <v>       0.19859833       0.05482267       0.78177434 </v>
   <v>       0.19864189       0.22141530       0.73449330 </v>
   <v>       0.19872703       0.05465162       0.87954431 </v>
   <v>       0.19883779       0.22139783       0.83048348 </v>
   <v>       0.19860300       0.05477741       0.97100115 </v>
   <v>       0.19883579       0.22120875       0.92485128 </v>
   <v>       0.53163890       0.05358031       0.49630307 </v>
   <v>       0.53270403       0.22042999       0.44985041 </v>
   <v>       0.53114341       0.05373895       0.59076460 </v>
   <v>       0.53316203       0.21920549       0.54197467 </v>
   <v>       0.53249471       0.05274625       0.68619958 </v>
   <v>       0.53224143       0.21975807       0.63874392 </v>
   <v>       0.53144051       0.05358793       0.78218448 </v>
   <v>       0.53247173       0.21936363       0.73482121 </v>
   <v>       0.53291204       0.05264803       0.87897373 </v>
   <v>       0.53128610       0.22011798       0.83012131 </v>
   <v>       0.53302797       0.05369502       0.97111027 </v>
   <v>       0.53197301       0.22007387       0.92455500 </v>
   <v>       0.19900828       0.38781933       0.49608207 </v>
   <v>       0.19850295       0.55511154       0.44982291 </v>
   <v>       0.19894879       0.38786649       0.59054408 </v>
   <v>       0.19918847       0.55443243       0.54135006 </v>
   <v>       0.19874673       0.38802187       0.68649417 </v>
   <v>       0.19897329       0.55455399       0.63921479 </v>
   <v>       0.19862194       0.38812146       0.78179033 </v>
   <v>       0.19865340       0.55480321       0.73446085 </v>
   <v>       0.19885383       0.38790065       0.87950474 </v>
   <v>       0.19860963       0.55484693       0.83051752 </v>
   <v>       0.19890704       0.38787029       0.97102363 </v>
   <v>       0.19889265       0.55453391       0.92486940 </v>
   <v>       0.86631383       0.05559305       0.49629283 </v>
   <v>       0.86469842       0.22216676       0.44987673 </v>
   <v>       0.86697293       0.05512222       0.59075987 </v>
   <v>       0.86476111       0.22298239       0.54200327 </v>
   <v>       0.86490401       0.05644989       0.68617719 </v>
   <v>       0.86572370       0.22242254       0.63877571 </v>
   <v>       0.86550849       0.05570249       0.78228339 </v>
   <v>       0.86485843       0.22316891       0.73486445 </v>
   <v>       0.86487366       0.05627131       0.87897403 </v>
   <v>       0.86676966       0.22194783       0.83025379 </v>
   <v>       0.86501842       0.05519958       0.97114769 </v>
   <v>       0.86561920       0.22231111       0.92468105 </v>
   <v>       0.53161418       0.38691099       0.49630902 </v>
   <v>       0.53328673       0.55345631       0.44991150 </v>
   <v>       0.53118972       0.38706621       0.59076922 </v>
   <v>       0.53347114       0.55248653       0.54193054 </v>
   <v>       0.53264067       0.38599133       0.68612766 </v>
   <v>       0.53264109       0.55328464       0.63880706 </v>
   <v>       0.53178368       0.38662386       0.78226089 </v>
   <v>       0.53269677       0.55248612       0.73480336 </v>
   <v>       0.53293439       0.38609238       0.87899870 </v>
   <v>       0.53125078       0.55348500       0.83021543 </v>
   <v>       0.53285995       0.38712996       0.97110987 </v>
   <v>       0.53179137       0.55347193       0.92466674 </v>
   <v>       0.19897333       0.72123867       0.49610926 </v>
   <v>       0.19841846       0.88835815       0.44982775 </v>
   <v>       0.19924782       0.72098648       0.59053697 </v>
   <v>       0.19921429       0.88764454       0.54138698 </v>
   <v>       0.19871837       0.72127705       0.68652035 </v>
   <v>       0.19907089       0.88775370       0.63925116 </v>
   <v>       0.19875870       0.72147278       0.78176859 </v>
   <v>       0.19876506       0.88811325       0.73450456 </v>
   <v>       0.19905412       0.72127622       0.87957591 </v>
   <v>       0.19872112       0.88810662       0.83047682 </v>
   <v>       0.19856150       0.72132923       0.97101735 </v>
   <v>       0.19893717       0.88784272       0.92484020 </v>
   <v>       0.86641289       0.38883619       0.49631942 </v>
   <v>       0.86478585       0.55556555       0.44988188 </v>
   <v>       0.86698188       0.38862417       0.59073203 </v>
   <v>       0.86474662       0.55643425       0.54202727 </v>
   <v>       0.86517724       0.38975737       0.68618289 </v>
   <v>       0.86561014       0.55592205       0.63878462 </v>
   <v>       0.86551742       0.38880367       0.78231145 </v>
   <v>       0.86489908       0.55647448       0.73485332 </v>
   <v>       0.86506237       0.38945787       0.87903232 </v>
   <v>       0.86668218       0.55526144       0.83023090 </v>
   <v>       0.86491641       0.38878180       0.97110790 </v>
   <v>       0.86589760       0.55560175       0.92465171 </v>
   <v>       0.53179126       0.72029888       0.49634711 </v>
   <v>       0.53294452       0.88693414       0.44986209 </v>
   <v>       0.53130805       0.72032157       0.59076141 </v>
   <v>       0.53337343       0.88585926       0.54194306 </v>
   <v>       0.53232538       0.71956817       0.68622526 </v>
   <v>       0.53230369       0.88651782       0.63877987 </v>
   <v>       0.53180274       0.71998138       0.78225772 </v>
   <v>       0.53263605       0.88595084       0.73478302 </v>
   <v>       0.53287973       0.71949327       0.87896920 </v>
   <v>       0.53087843       0.88706209       0.83014816 </v>
   <v>       0.53294774       0.72035959       0.97112845 </v>
   <v>       0.53182225       0.88679809       0.92463592 </v>
   <v>       0.86633945       0.72227383       0.49631339 </v>
   <v>       0.86473993       0.88881157       0.44988001 </v>
   <v>       0.86691120       0.72195522       0.59076582 </v>
   <v>       0.86460299       0.88967266       0.54203099 </v>
   <v>       0.86505838       0.72315637       0.68620461 </v>
   <v>       0.86568627       0.88916957       0.63877863 </v>
   <v>       0.86539489       0.72234111       0.78227893 </v>
   <v>       0.86500298       0.88964582       0.73487293 </v>
   <v>       0.86472846       0.72297496       0.87901072 </v>
   <v>       0.86665457       0.88861957       0.83023732 </v>
   <v>       0.86502548       0.72194400       0.97114343 </v>
   <v>       0.86551181       0.88918850       0.92464424 </v>
   <v>       0.45143706       0.02815547       0.02993970 </v>
   <v>       0.45140444       0.02817424       0.13382483 </v>
   <v>       0.45140472       0.02817680       0.23803015 </v>
   <v>       0.45140554       0.02817565       0.34225817 </v>
   <v>       0.45143802       0.27815623       0.02994605 </v>
   <v>       0.45140333       0.27817531       0.13382808 </v>
   <v>       0.45140499       0.27817621       0.23802399 </v>
   <v>       0.45140548       0.27817598       0.34230430 </v>
   <v>       0.45143759       0.52815533       0.02994017 </v>
   <v>       0.45140260       0.52817429       0.13382587 </v>
   <v>       0.45140492       0.52817631       0.23803105 </v>
   <v>       0.45140544       0.52817571       0.34225834 </v>
   <v>       0.45143706       0.77815696       0.02994666 </v>
   <v>       0.45140053       0.77817603       0.13382891 </v>
   <v>       0.45140533       0.77817668       0.23802421 </v>
   <v>       0.45140508       0.77817625       0.34230428 </v>
   <v>       0.95143760       0.02815532       0.02994014 </v>
   <v>       0.95140267       0.02817421       0.13382586 </v>
   <v>       0.95140477       0.02817645       0.23803104 </v>
   <v>       0.95140547       0.02817566       0.34225833 </v>
   <v>       0.95143707       0.27815693       0.02994668 </v>
   <v>       0.95140077       0.27817563       0.13382894 </v>
   <v>       0.95140612       0.27817610       0.23802427 </v>
   <v>       0.95140509       0.27817597       0.34230434 </v>
   <v>       0.95143704       0.52815549       0.02993980 </v>
   <v>       0.95140423       0.52817443       0.13382493 </v>
   <v>       0.95140546       0.52817603       0.23803051 </v>
   <v>       0.95140503       0.52817614       0.34225836 </v>
   <v>       0.95143797       0.77815626       0.02994603 </v>
   <v>       0.95140293       0.77817572       0.13382804 </v>
   <v>       0.95140487       0.77817676       0.23802394 </v>
   <v>       0.95140501       0.77817625       0.34230429 </v>
  </varray>
 </structure>
 <calculation>
  <scstep>
   <time name="dav">    7.91    7.93</time>
   <time name="total">    8.15    8.17</time>
   <energy>
    <i name="alphaZ">   -183.06767636 </i>
    <i name="ewald"> 114358.08457780 </i>
    <i name="hartreedc">-140352.26706717 </i>
    <i name="XCdc">  -5935.62713685 </i>
    <i name="pawpsdc">  29633.13489558 </i>
    <i name="pawaedc"> -22042.59917747 </i>
    <i name="eentropy">     -0.24931199 </i>
    <i name="bandstr">    577.49468856 </i>
    <i name="atom">  27995.60725988 </i>
    <i name="e_fr_energy">   4050.51105197 </i>
    <i name="e_wo_entrp">   4050.76036396 </i>
    <i name="e_0_energy">   4050.63570797 </i>
   </energy>
  </scstep>
  <scstep>
   <time name="dav">   10.22   10.24</time>
   <time name="total">   10.22   10.24</time>
   <energy>
    <i name="e_fr_energy">    377.95970081 </i>
    <i name="e_wo_entrp">    378.26566231 </i>
    <i name="e_0_energy">    378.11268156 </i>
   </energy>
  </scstep>
  <scstep>
   <time name="dav">   10.13   10.15</time>
   <time name="total">   10.14   10.15</time>
   <energy>
    <i name="e_fr_energy">   -834.00698243 </i>
    <i name="e_wo_entrp">   -833.70651525 </i>
    <i name="e_0_energy">   -833.85674884 </i>
   </energy>
  </scstep>
  <scstep>
   <time name="dav">    8.86    8.87</time>
   <time name="total">    8.86    8.87</time>
   <energy>
    <i name="e_fr_energy">   -878.80215911 </i>
    <i name="e_wo_entrp">   -878.54829275 </i>
    <i name="e_0_energy">   -878.67522593 </i>
   </energy>
  </scstep>
  <scstep>
   <time name="dav">    9.85    9.85</time>
   <time name="total">   10.03   10.03</time>
   <energy>
    <i name="e_fr_energy">   -880.28923007 </i>
    <i name="e_wo_entrp">   -880.03546375 </i>
    <i name="e_0_energy">   -880.16234691 </i>
   </energy>
  </scstep>
  <scstep>
   <time name="diag">    1.42    1.42</time>
   <time name="diis">    3.91    3.92</time>
   <time name="orth">    0.60    0.60</time>
   <time name="total">    6.35    6.37</time>
   <energy>
    <i name="e_fr_energy">   -717.19822552 </i>
    <i name="e_wo_entrp">   -716.85849537 </i>
    <i name="e_0_energy">   -717.02836045 </i>
   </energy>
  </scstep>
  <scstep>
   <time name="diag">    1.43    1.43</time>
   <time name="diis">    4.34    4.35</time>
   <time name="orth">    0.60    0.60</time>
   <time name="total">    6.78    6.80</time>
   <energy>
    <i name="e_fr_energy">   -719.78920052 </i>
    <i name="e_wo_entrp">   -719.44937742 </i>
    <i name="e_0_energy">   -719.61928897 </i>
   </energy>
  </scstep>
  <scstep>
   <time name="diag">    1.42    1.42</time>
   <time name="diis">    4.03    4.03</time>
   <time name="orth">    0.60    0.60</time>
   <time name="total">    6.46    6.48</time>
   <energy>
    <i name="e_fr_energy">   -715.80766379 </i>
    <i name="e_wo_entrp">   -715.47081836 </i>
    <i name="e_0_energy">   -715.63924107 </i>
   </energy>
  </scstep>
  <scstep>
   <time name="diag">    1.42    1.42</time>
   <time name="diis">    4.00    4.00</time>
   <time name="orth">    0.60    0.60</time>
   <time name="total">    6.43    6.43</time>
   <energy>
    <i name="e_fr_energy">   -714.56072604 </i>
    <i name="e_wo_entrp">   -714.20907260 </i>
    <i name="e_0_energy">   -714.38489932 </i>
   </energy>
  </scstep>
  <scstep>
   <time name="diag">    1.42    1.43</time>
   <time name="diis">    4.32    4.32</time>
   <time name="orth">    0.60    0.60</time>
   <time name="total">    6.75    6.75</time>
   <energy>
    <i name="e_fr_energy">   -714.21353393 </i>
    <i name="e_wo_entrp">   -713.89369912 </i>
    <i name="e_0_energy">   -714.05361653 </i>
   </energy>
  </scstep>
  <scstep>
   <time name="diag">    1.42    1.42</time>
   <time name="diis">    3.99    3.99</time>
   <time name="orth">    0.60    0.60</time>
   <time name="total">    6.43    6.43</time>
   <energy>
    <i name="e_fr_energy">   -713.72534118 </i>
    <i name="e_wo_entrp">   -713.40857789 </i>
    <i name="e_0_energy">   -713.56695953 </i>
   </energy>
  </scstep>
  <scstep>
   <time name="diag">    1.42    1.42</time>
   <time name="diis">    4.22    4.22</time>
   <time name="orth">    0.61    0.61</time>
   <time name="total">    6.65    6.66</time>
   <energy>
    <i name="e_fr_energy">   -713.74872387 </i>
    <i name="e_wo_entrp">   -713.43465236 </i>
    <i name="e_0_energy">   -713.59168811 </i>
   </energy>
  </scstep>
  <scstep>
   <time name="diag">    1.42    1.43</time>
   <time name="diis">    4.36    4.36</time>
   <time name="orth">    0.60    0.60</time>
   <time name="total">    6.79    6.81</time>
   <energy>
    <i name="e_fr_energy">   -713.72841831 </i>
    <i name="e_wo_entrp">   -713.41493785 </i>
    <i name="e_0_energy">   -713.57167808 </i>
   </energy>
  </scstep>
  <scstep>
   <time name="diag">    1.42    1.42</time>
   <time name="diis">    4.69    4.69</time>
   <time name="orth">    0.60    0.60</time>
   <time name="total">    7.12    7.12</time>
   <energy>
    <i name="e_fr_energy">   -713.73452908 </i>
    <i name="e_wo_entrp">   -713.42107953 </i>
    <i name="e_0_energy">   -713.57780430 </i>
   </energy>
  </scstep>
  <scstep>
   <time name="diag">    1.43    1.43</time>
   <time name="diis">    4.46    4.46</time>
   <time name="orth">    0.60    0.60</time>
   <time name="total">    6.89    6.89</time>
   <energy>
    <i name="e_fr_energy">   -713.72800080 </i>
    <i name="e_wo_entrp">   -713.41455504 </i>
    <i name="e_0_energy">   -713.57127792 </i>
   </energy>
  </scstep>
  <scstep>
   <time name="diag">    1.43    1.43</time>
   <time name="diis">    4.60    4.60</time>
   <time name="orth">    0.60    0.60</time>
   <time name="total">    7.03    7.25</time>
   <energy>
    <i name="e_fr_energy">   -713.68458476 </i>
    <i name="e_wo_entrp">   -713.37119933 </i>
    <i name="e_0_energy">   -713.52789205 </i>
   </energy>
  </scstep>
  <scstep>
   <time name="diag">    1.42    1.42</time>
   <time name="diis">    4.28    4.28</time>
   <time name="orth">    0.60    0.60</time>
   <time name="total">    6.72    6.73</time>
   <energy>
[...]
       <r>     3.4586    64.3114   743.4993 </r>
       <r>     3.5362    62.0454   748.3165 </r>
       <r>     3.6139    66.2763   753.4623 </r>
       <r>     3.6915    85.2077   760.0778 </r>
       <r>     3.7691   129.5409   770.1355 </r>
       <r>     3.8468   139.4429   780.9619 </r>
       <r>     3.9244   101.0553   788.8079 </r>
       <r>     4.0021    68.1791   794.1013 </r>
       <r>     4.0797    50.6766   798.0359 </r>
       <r>     4.1573    47.7118   801.7403 </r>
       <r>     4.2350    66.4705   806.9011 </r>
       <r>     4.3126    84.7114   813.4781 </r>
       <r>     4.3903    97.7804   821.0698 </r>
       <r>     4.4679   108.6306   829.5040 </r>
       <r>     4.5455    95.5349   836.9214 </r>
       <r>     4.6232    63.3054   841.8364 </r>
       <r>     4.7008    39.3903   844.8947 </r>
       <r>     4.7785    30.4591   847.2596 </r>
       <r>     4.8561    26.2206   849.2953 </r>
       <r>     4.9338    16.2614   850.5579 </r>
       <r>     5.0114    10.8730   851.4021 </r>
       <r>     5.0890    21.6944   853.0864 </r>
       <r>     5.1667    37.5365   856.0008 </r>
       <r>     5.2443    44.6230   859.4653 </r>
       <r>     5.3220    47.8589   863.1811 </r>
       <r>     5.3996    52.2664   867.2391 </r>
       <r>     5.4772    56.2704   871.6080 </r>
       <r>     5.5549    64.5344   876.6185 </r>
       <r>     5.6325    68.6387   881.9476 </r>
       <r>     5.7102    62.3888   886.7915 </r>
       <r>     5.7878    49.8286   890.6602 </r>
       <r>     5.8654    34.4422   893.3344 </r>
       <r>     5.9431    16.9173   894.6478 </r>
       <r>     6.0207     4.9795   895.0344 </r>
       <r>     6.0984     3.9841   895.3438 </r>
       <r>     6.1760     5.3306   895.7576 </r>
       <r>     6.2536     2.6556   895.9638 </r>
       <r>     6.3313     0.4417   895.9981 </r>
       <r>     6.4089     0.0240   896.0000 </r>
       <r>     6.4866     0.0004   896.0000 </r>
       <r>     6.5642     0.0000   896.0000 </r>
       <r>     6.6418     0.0000   896.0000 </r>
       <r>     6.7195     0.0000   896.0000 </r>
       <r>     6.7971     0.0000   896.0000 </r>
       <r>     6.8748     0.0000   896.0000 </r>
       <r>     6.9524     0.0000   896.0000 </r>
       <r>     7.0300     0.0000   896.0000 </r>
       <r>     7.1077     0.0000   896.0000 </r>
       <r>     7.1853     0.0000   896.0000 </r>
      </set>
     </set>
    </array>
   </total>
  </dos>
 </calculation>
 <structure name="finalpos" >
  <crystal>
   <varray name="basis" >
    <v>      -8.90732730       8.90732730       0.00000000 </v>
    <v>     -17.81465460       0.00000000       0.00000000 </v>
    <v>       0.00000000       0.00000000      43.32408542 </v>
   </varray>
   <i name="volume">   6874.70743266 </i>
   <varray name="rec_basis" >
    <v>       0.00000000       0.11226712       0.00000000 </v>
    <v>      -0.05613356      -0.05613356       0.00000000 </v>
    <v>       0.00000000       0.00000000       0.02308185 </v>
   </varray>
  </crystal>
  <varray name="positions" >
   <v>       0.20139970       0.02817878       0.08089449 </v>
   <v>       0.20140266       0.02817632       0.18585345 </v>
   <v>       0.20140379       0.02817673       0.29002354 </v>
   <v>       0.20140338       0.02817713       0.39305953 </v>
   <v>       0.20142290       0.27815757       0.08092430 </v>
   <v>       0.20140328       0.27817710       0.18585454 </v>
   <v>       0.20140338       0.27817730       0.28999929 </v>
   <v>       0.20140346       0.27817711       0.39312630 </v>
   <v>       0.20140135       0.52817649       0.08089507 </v>
   <v>       0.20140336       0.52817681       0.18585347 </v>
   <v>       0.20140378       0.52817686       0.29002349 </v>
   <v>       0.20140337       0.52817717       0.39305955 </v>
   <v>       0.20142283       0.77815658       0.08092431 </v>
   <v>       0.20140261       0.77817830       0.18585431 </v>
   <v>       0.20140984       0.77817208       0.28999394 </v>
   <v>       0.20140338       0.77817715       0.39312626 </v>
   <v>       0.70140151       0.02817665       0.08089496 </v>
   <v>       0.70140363       0.02817699       0.18585343 </v>
   <v>       0.70140401       0.02817681       0.29002355 </v>
   <v>       0.70140334       0.02817714       0.39305953 </v>
   <v>       0.70142268       0.27815667       0.08092433 </v>
   <v>       0.70140264       0.27817828       0.18585436 </v>
   <v>       0.70140973       0.27817213       0.28999393 </v>
   <v>       0.70140336       0.27817718       0.39312627 </v>
   <v>       0.70140012       0.52817867       0.08089462 </v>
   <v>       0.70140300       0.52817643       0.18585351 </v>
   <v>       0.70140379       0.52817690       0.29002349 </v>
   <v>       0.70140325       0.52817718       0.39305954 </v>
   <v>       0.70142360       0.77815689       0.08092436 </v>
   <v>       0.70140193       0.77817898       0.18585476 </v>
   <v>       0.70140985       0.77817201       0.28999397 </v>
   <v>       0.70140332       0.77817723       0.39312627 </v>
   <v>       0.45140053       0.02817552       0.08166890 </v>
   <v>       0.20118702       0.15315138       0.02889826 </v>
   <v>       0.45140876       0.02817302       0.18593021 </v>
   <v>       0.20138221       0.15442142       0.13380725 </v>
   <v>       0.45140462       0.02817660       0.29008523 </v>
   <v>       0.20121283       0.15296283       0.23805079 </v>
   <v>       0.45140620       0.02817492       0.39346826 </v>
   <v>       0.20137994       0.15228681       0.34241002 </v>
   <v>       0.45126732       0.15315033       0.02886170 </v>
   <v>       0.45140977       0.27817178       0.08169587 </v>
   <v>       0.20165755       0.40317837       0.02890170 </v>
   <v>       0.45404079       0.15181750       0.13367399 </v>
   <v>       0.45140515       0.27817558       0.18590010 </v>
   <v>       0.20142234       0.40193242       0.13380786 </v>
   <v>       0.45096880       0.15336578       0.23801492 </v>
   <v>       0.45140555       0.27817565       0.29012533 </v>
   <v>       0.20160014       0.40338358       0.23804923 </v>
   <v>       0.44969943       0.15401378       0.34230153 </v>
   <v>       0.45140535       0.27817534       0.39353456 </v>
   <v>       0.20142908       0.40406703       0.34240986 </v>
   <v>       0.45155269       0.40318605       0.02885236 </v>
   <v>       0.45140925       0.52817223       0.08166987 </v>
   <v>       0.20118873       0.65315130       0.02889793 </v>
   <v>       0.44876033       0.40453485       0.13367385 </v>
   <v>       0.45139353       0.52818213       0.18593190 </v>
   <v>       0.20138262       0.65442115       0.13380745 </v>
   <v>       0.45183990       0.40298846       0.23801558 </v>
   <v>       0.45140441       0.52817681       0.29008561 </v>
   <v>       0.20121166       0.65296266       0.23805142 </v>
   <v>       0.45310996       0.40233935       0.34230168 </v>
   <v>       0.45140625       0.52817486       0.39346841 </v>
   <v>       0.20137992       0.65228673       0.34241011 </v>
   <v>       0.45126826       0.65315024       0.02886206 </v>
   <v>       0.45139470       0.77818020       0.08169711 </v>
   <v>       0.20165744       0.90317890       0.02890190 </v>
   <v>       0.45405130       0.65181065       0.13367324 </v>
   <v>       0.45141146       0.77817392       0.18590088 </v>
   <v>       0.20141854       0.90192797       0.13381608 </v>
   <v>       0.45096990       0.65336544       0.23801554 </v>
   <v>       0.45140534       0.77817656       0.29012527 </v>
   <v>       0.20160040       0.90338367       0.23804958 </v>
   <v>       0.44969958       0.65401373       0.34230161 </v>
   <v>       0.45140535       0.77817539       0.39353455 </v>
   <v>       0.20142927       0.90406723       0.34240993 </v>
   <v>       0.45155191       0.90318628       0.02885241 </v>
   <v>       0.44876164       0.90453448       0.13367422 </v>
   <v>       0.45184009       0.90298904       0.23801481 </v>
   <v>       0.45310988       0.90233948       0.34230154 </v>
   <v>       0.95140910       0.02817239       0.08166982 </v>
   <v>       0.70118882       0.15315119       0.02889792 </v>
   <v>       0.95139349       0.02818213       0.18593188 </v>
   <v>       0.70138312       0.15442087       0.13380745 </v>
   <v>       0.95140455       0.02817664       0.29008560 </v>
   <v>       0.70121190       0.15296212       0.23805155 </v>
   <v>       0.95140630       0.02817485       0.39346841 </v>
   <v>       0.70137993       0.15228667       0.34241012 </v>
   <v>       0.95126845       0.15315010       0.02886209 </v>
   <v>       0.95139561       0.27817925       0.08169712 </v>
   <v>       0.70165753       0.40317876       0.02890192 </v>
   <v>       0.95405139       0.15181030       0.13367327 </v>
   <v>       0.95141288       0.27817263       0.18590088 </v>
   <v>       0.70141879       0.40192743       0.13381622 </v>
   <v>       0.95097087       0.15336479       0.23801570 </v>
   <v>       0.95140634       0.27817562       0.29012540 </v>
   <v>       0.70160083       0.40338347       0.23804962 </v>
   <v>       0.94969962       0.15401371       0.34230160 </v>
   <v>       0.95140549       0.27817525       0.39353456 </v>
   <v>       0.70142934       0.40406712       0.34240999 </v>
   <v>       0.95155208       0.40318621       0.02885241 </v>
   <v>       0.95140072       0.52817534       0.08166909 </v>
   <v>       0.70118712       0.65315142       0.02889826 </v>
   <v>       0.94875931       0.40453550       0.13367377 </v>
   <v>       0.95140865       0.52817307       0.18593048 </v>
   <v>       0.70138199       0.65442169       0.13380707 </v>
   <v>       0.95184027       0.40298874       0.23801539 </v>
   <v>       0.95140439       0.52817679       0.29008540 </v>
   <v>       0.70121275       0.65296191       0.23805161 </v>
   <v>       0.95311024       0.40233928       0.34230160 </v>
   <v>       0.95140642       0.52817480       0.39346836 </v>
   <v>       0.70138001       0.65228668       0.34241012 </v>
   <v>       0.95126722       0.65315033       0.02886174 </v>
   <v>       0.95140882       0.77817272       0.08169581 </v>
   <v>       0.70165760       0.90317842       0.02890167 </v>
   <v>       0.95404049       0.65181790       0.13367383 </v>
   <v>       0.95140370       0.77817688       0.18590010 </v>
   <v>       0.70142236       0.90193146       0.13380823 </v>
   <v>       0.95097042       0.65336508       0.23801574 </v>
   <v>       0.95140457       0.77817658       0.29012528 </v>
   <v>       0.70159610       0.90339221       0.23805050 </v>
   <v>       0.94969936       0.65401378       0.34230161 </v>
   <v>       0.95140544       0.77817531       0.39353456 </v>
   <v>       0.70142911       0.90406726       0.34240986 </v>
   <v>       0.95155262       0.90318613       0.02885231 </v>
   <v>       0.94875934       0.90453553       0.13367370 </v>
   <v>       0.95183982       0.90298872       0.23801558 </v>
   <v>       0.95310969       0.90233949       0.34230164 </v>
   <v>       0.19901631       0.05449019       0.49609238 </v>
   <v>       0.19860776       0.22159346       0.44978276 </v>
   <v>       0.19910000       0.05441495       0.59051999 </v>
   <v>       0.19918369       0.22107385       0.54135195 </v>
   <v>       0.19868318       0.05468821       0.68654228 </v>
   <v>       0.19885107       0.22125032       0.63920990 </v>
   <v>       0.19859833       0.05482267       0.78177434 </v>
   <v>       0.19864189       0.22141530       0.73449330 </v>
   <v>       0.19872703       0.05465162       0.87954431 </v>
   <v>       0.19883779       0.22139783       0.83048348 </v>
   <v>       0.19860300       0.05477741       0.97100115 </v>
   <v>       0.19883579       0.22120875       0.92485128 </v>
   <v>       0.53163890       0.05358031       0.49630307 </v>
   <v>       0.53270403       0.22042999       0.44985041 </v>
   <v>       0.53114341       0.05373895       0.59076460 </v>
   <v>       0.53316203       0.21920549       0.54197467 </v>
   <v>       0.53249471       0.05274625       0.68619958 </v>
   <v>       0.53224143       0.21975807       0.63874392 </v>
   <v>       0.53144051       0.05358793       0.78218448 </v>
   <v>       0.53247173       0.21936363       0.73482121 </v>
   <v>       0.53291204       0.05264803       0.87897373 </v>
   <v>       0.53128610       0.22011798       0.83012131 </v>
   <v>       0.53302797       0.05369502       0.97111027 </v>
   <v>       0.53197301       0.22007387       0.92455500 </v>
   <v>       0.19900828       0.38781933       0.49608207 </v>
   <v>       0.19850295       0.55511154       0.44982291 </v>
   <v>       0.19894879       0.38786649       0.59054408 </v>
   <v>       0.19918847       0.55443243       0.54135006 </v>
   <v>       0.19874673       0.38802187       0.68649417 </v>
   <v>       0.19897329       0.55455399       0.63921479 </v>
   <v>       0.19862194       0.38812146       0.78179033 </v>
   <v>       0.19865340       0.55480321       0.73446085 </v>
   <v>       0.19885383       0.38790065       0.87950474 </v>
   <v>       0.19860963       0.55484693       0.83051752 </v>
   <v>       0.19890704       0.38787029       0.97102363 </v>
   <v>       0.19889265       0.55453391       0.92486940 </v>
   <v>       0.86631383       0.05559305       0.49629283 </v>
   <v>       0.86469842       0.22216676       0.44987673 </v>
   <v>       0.86697293       0.05512222       0.59075987 </v>
   <v>       0.86476111       0.22298239       0.54200327 </v>
   <v>       0.86490401       0.05644989       0.68617719 </v>
   <v>       0.86572370       0.22242254       0.63877571 </v>
   <v>       0.86550849       0.05570249       0.78228339 </v>
   <v>       0.86485843       0.22316891       0.73486445 </v>
   <v>       0.86487366       0.05627131       0.87897403 </v>
   <v>       0.86676966       0.22194783       0.83025379 </v>
   <v>       0.86501842       0.05519958       0.97114769 </v>
   <v>       0.86561920       0.22231111       0.92468105 </v>
   <v>       0.53161418       0.38691099       0.49630902 </v>
   <v>       0.53328673       0.55345631       0.44991150 </v>
   <v>       0.53118972       0.38706621       0.59076922 </v>
   <v>       0.53347114       0.55248653       0.54193054 </v>
   <v>       0.53264067       0.38599133       0.68612766 </v>
   <v>       0.53264109       0.55328464       0.63880706 </v>
   <v>       0.53178368       0.38662386       0.78226089 </v>
   <v>       0.53269677       0.55248612       0.73480336 </v>
   <v>       0.53293439       0.38609238       0.87899870 </v>
   <v>       0.53125078       0.55348500       0.83021543 </v>
   <v>       0.53285995       0.38712996       0.97110987 </v>
   <v>       0.53179137       0.55347193       0.92466674 </v>
   <v>       0.19897333       0.72123867       0.49610926 </v>
   <v>       0.19841846       0.88835815       0.44982775 </v>
   <v>       0.19924782       0.72098648       0.59053697 </v>
   <v>       0.19921429       0.88764454       0.54138698 </v>
   <v>       0.19871837       0.72127705       0.68652035 </v>
   <v>       0.19907089       0.88775370       0.63925116 </v>
   <v>       0.19875870       0.72147278       0.78176859 </v>
   <v>       0.19876506       0.88811325       0.73450456 </v>
   <v>       0.19905412       0.72127622       0.87957591 </v>
   <v>       0.19872112       0.88810662       0.83047682 </v>
   <v>       0.19856150       0.72132923       0.97101735 </v>
   <v>       0.19893717       0.88784272       0.92484020 </v>
   <v>       0.86641289       0.38883619       0.49631942 </v>
   <v>       0.86478585       0.55556555       0.44988188 </v>
   <v>       0.86698188       0.38862417       0.59073203 </v>
   <v>       0.86474662       0.55643425       0.54202727 </v>
   <v>       0.86517724       0.38975737       0.68618289 </v>
   <v>       0.86561014       0.55592205       0.63878462 </v>
   <v>       0.86551742       0.38880367       0.78231145 </v>
   <v>       0.86489908       0.55647448       0.73485332 </v>
   <v>       0.86506237       0.38945787       0.87903232 </v>
   <v>       0.86668218       0.55526144       0.83023090 </v>
   <v>       0.86491641       0.38878180       0.97110790 </v>
   <v>       0.86589760       0.55560175       0.92465171 </v>
   <v>       0.53179126       0.72029888       0.49634711 </v>
   <v>       0.53294452       0.88693414       0.44986209 </v>
   <v>       0.53130805       0.72032157       0.59076141 </v>
   <v>       0.53337343       0.88585926       0.54194306 </v>
   <v>       0.53232538       0.71956817       0.68622526 </v>
   <v>       0.53230369       0.88651782       0.63877987 </v>
   <v>       0.53180274       0.71998138       0.78225772 </v>
   <v>       0.53263605       0.88595084       0.73478302 </v>
   <v>       0.53287973       0.71949327       0.87896920 </v>
   <v>       0.53087843       0.88706209       0.83014816 </v>
   <v>       0.53294774       0.72035959       0.97112845 </v>
   <v>       0.53182225       0.88679809       0.92463592 </v>
   <v>       0.86633945       0.72227383       0.49631339 </v>
   <v>       0.86473993       0.88881157       0.44988001 </v>
   <v>       0.86691120       0.72195522       0.59076582 </v>
   <v>       0.86460299       0.88967266       0.54203099 </v>
   <v>       0.86505838       0.72315637       0.68620461 </v>
   <v>       0.86568627       0.88916957       0.63877863 </v>
   <v>       0.86539489       0.72234111       0.78227893 </v>
   <v>       0.86500298       0.88964582       0.73487293 </v>
   <v>       0.86472846       0.72297496       0.87901072 </v>
   <v>       0.86665457       0.88861957       0.83023732 </v>
   <v>       0.86502548       0.72194400       0.97114343 </v>
   <v>       0.86551181       0.88918850       0.92464424 </v>
   <v>       0.45143706       0.02815547       0.02993970 </v>
   <v>       0.45140444       0.02817424       0.13382483 </v>
   <v>       0.45140472       0.02817680       0.23803015 </v>
   <v>       0.45140554       0.02817565       0.34225817 </v>
   <v>       0.45143802       0.27815623       0.02994605 </v>
   <v>       0.45140333       0.27817531       0.13382808 </v>
   <v>       0.45140499       0.27817621       0.23802399 </v>
   <v>       0.45140548       0.27817598       0.34230430 </v>
   <v>       0.45143759       0.52815533       0.02994017 </v>
   <v>       0.45140260       0.52817429       0.13382587 </v>
   <v>       0.45140492       0.52817631       0.23803105 </v>
   <v>       0.45140544       0.52817571       0.34225834 </v>
   <v>       0.45143706       0.77815696       0.02994666 </v>
   <v>       0.45140053       0.77817603       0.13382891 </v>
   <v>       0.45140533       0.77817668       0.23802421 </v>
   <v>       0.45140508       0.77817625       0.34230428 </v>
   <v>       0.95143760       0.02815532       0.02994014 </v>
   <v>       0.95140267       0.02817421       0.13382586 </v>
   <v>       0.95140477       0.02817645       0.23803104 </v>
   <v>       0.95140547       0.02817566       0.34225833 </v>
   <v>       0.95143707       0.27815693       0.02994668 </v>
   <v>       0.95140077       0.27817563       0.13382894 </v>
   <v>       0.95140612       0.27817610       0.23802427 </v>
   <v>       0.95140509       0.27817597       0.34230434 </v>
   <v>       0.95143704       0.52815549       0.02993980 </v>
   <v>       0.95140423       0.52817443       0.13382493 </v>
   <v>       0.95140546       0.52817603       0.23803051 </v>
   <v>       0.95140503       0.52817614       0.34225836 </v>
   <v>       0.95143797       0.77815626       0.02994603 </v>
   <v>       0.95140293       0.77817572       0.13382804 </v>
   <v>       0.95140487       0.77817676       0.23802394 </v>
   <v>       0.95140501       0.77817625       0.34230429 </v>
  </varray>
 </structure>
</modeling>
