 running on  120 total cores
 distrk:  each k-point on  120 cores,    1 groups
 distr:  one band on   15 cores,    8 groups
 vasp.6.2.1 16May21 (build Dec 23 2021 00:35:04) complex                        
  
 POSCAR found type information on POSCAR ClNaO 
 POSCAR found :  3 types and     268 ions
 scaLAPACK will be used
 LDA part: xc-table for Pade appr. of Perdew
 -----------------------------------------------------------------------------
|                                                                             |
|           W    W    AA    RRRRR   N    N  II  N    N   GGGG   !!!           |
|           W    W   A  A   R    R  NN   N  II  NN   N  G    G  !!!           |
|           W    W  A    A  R    R  N N  N  II  N N  N  G       !!!           |
|           W WW W  AAAAAA  RRRRR   N  N N  II  N  N N  G  GGG   !            |
|           WW  WW  A    A  R   R   N   NN  II  N   NN  G    G                |
|           W    W  A    A  R    R  N    N  II  N    N   GGGG   !!!           |
|                                                                             |
|     The requested file  could not be found or opened for reading            |
|     k-point information. Automatic k-point generation is used as a          |
|     fallback, which may lead to unwanted results.                           |
|                                                                             |
 -----------------------------------------------------------------------------

 POSCAR, INCAR and KPOINTS ok, starting setup
 FFT: planning ...
 WAVECAR not read
 WARNING: random wavefunctions but no delay for mixing, default for NELMDL
 entering main loop
       N       E                     dE             d eps       ncg     rms          rms(c)
DAV:   1     0.405051105197E+04    0.40505E+04   -0.16465E+05  1848   0.821E+02
DAV:   2     0.377959700811E+03   -0.36726E+04   -0.34006E+04  2568   0.185E+02
DAV:   3    -0.834006982432E+03   -0.12120E+04   -0.12027E+04  2552   0.104E+02
DAV:   4    -0.878802159112E+03   -0.44795E+02   -0.44543E+02  2128   0.238E+01
DAV:   5    -0.880289230073E+03   -0.14871E+01   -0.14860E+01  2472   0.486E+00    0.636E+01
RMM:   6    -0.717198225521E+03    0.16309E+03   -0.62139E+02  2295   0.212E+01    0.224E+01
RMM:   7    -0.719789200518E+03   -0.25910E+01   -0.12263E+02  2571   0.689E+00    0.184E+01
RMM:   8    -0.715807663787E+03    0.39815E+01   -0.20555E+01  2392   0.441E+00    0.772E+00
RMM:   9    -0.714560726044E+03    0.12469E+01   -0.68385E+00  2359   0.351E+00    0.520E+00
RMM:  10    -0.714213533933E+03    0.34719E+00   -0.11329E+01  2586   0.212E+00    0.502E+00
RMM:  11    -0.713725341177E+03    0.48819E+00   -0.17680E+00  2367   0.123E+00    0.180E+00
RMM:  12    -0.713748723866E+03   -0.23383E-01   -0.14768E+00  2487   0.101E+00    0.122E+00
RMM:  13    -0.713728418314E+03    0.20306E-01   -0.56315E-01  2593   0.641E-01    0.100E+00
RMM:  14    -0.713734529078E+03   -0.61108E-02   -0.75579E-02  2792   0.200E-01    0.124E+00
RMM:  15    -0.713728000800E+03    0.65283E-02   -0.49849E-03  2641   0.635E-02    0.122E+00
RMM:  16    -0.713684584758E+03    0.43416E-01   -0.15503E-01  2723   0.274E-01    0.281E-01
RMM:  17    -0.713673656231E+03    0.10929E-01   -0.22956E-02  2521   0.110E-01    0.351E-01
RMM:  18    -0.713665245243E+03    0.84110E-02   -0.51136E-03  2682   0.528E-02    0.365E-01
RMM:  19    -0.713660097684E+03    0.51476E-02   -0.18495E-02  2833   0.104E-01    0.533E-01
RMM:  20    -0.713656351726E+03    0.37460E-02   -0.31652E-03  2615   0.479E-02    0.422E-01
RMM:  21    -0.713653697134E+03    0.26546E-02   -0.60415E-03  2702   0.510E-02    0.252E-01
RMM:  22    -0.713652891731E+03    0.80540E-03   -0.25953E-03  2749   0.348E-02    0.141E-01
RMM:  23    -0.713652566287E+03    0.32544E-03   -0.28637E-03  2814   0.392E-02    0.134E-02
RMM:  24    -0.713652732336E+03   -0.16605E-03   -0.10490E-03  2662   0.216E-02    0.844E-02
RMM:  25    -0.713652606021E+03    0.12632E-03   -0.20673E-04  2329   0.125E-02    0.504E-02
RMM:  26    -0.713652570037E+03    0.35984E-04   -0.31624E-04  2435   0.124E-02    0.764E-03
RMM:  27    -0.713652572339E+03   -0.23018E-05   -0.53230E-05  2627   0.441E-03    0.624E-03
RMM:  28    -0.713652573680E+03   -0.13420E-05   -0.57437E-06  2514   0.232E-03    0.102E-02
RMM:  29    -0.713652571609E+03    0.20717E-05   -0.12195E-06  2395   0.126E-03    0.828E-03
 num prob RMM:  30    -0.713652570452E+03    0.11571E-05   -0.60818E-06  2558   0.176E-03    0.208E-03
RMM:  31    -0.713652570693E+03   -0.24102E-06   -0.10897E-06  2541   0.691E-04    0.989E-04
 num prob WARNING in EDDRMM: call to ZHEGV failed, returncode =   8  4     49
 num prob WARNING in EDDRMM: call to ZHEGV failed, returncode =   8  4     48
RMM:  32    -0.713652570756E+03   -0.63701E-07   -0.13033E-07  2270   0.336E-04    0.435E-04
 num prob WARNING in EDDRMM: call to ZHEGV failed, returncode =   8  4     49
WARNING in EDDRMM: call to ZHEGV failed, returncode =   8  4     47
RMM:  33    -0.713652570736E+03    0.19929E-07   -0.94414E-08  2005   0.236E-04    0.272E-04
 num prob  num prob RMM:  34    -0.713652570727E+03    0.91750E-08   -0.20133E-08  1557   0.145E-04
   1 F= -.71365257E+03 E0= -.71349561E+03  d E =-.313922E+00
