unknown system                          
           1
    -8.907327    8.907327    0.000000
   -17.814655    0.000000    0.000000
     0.000000    0.000000   43.324085
   Cl   Na   O 
    32   204    32
Direct configuration=     1
   0.20139970  0.02817878  0.08089449
   0.20140266  0.02817632  0.18585345
   0.20140379  0.02817673  0.29002354
   0.20140338  0.02817713  0.39305953
   0.20142290  0.27815757  0.08092430
   0.20140328  0.27817710  0.18585454
   0.20140338  0.27817730  0.28999929
   0.20140346  0.27817711  0.39312630
   0.20140135  0.52817649  0.08089507
   0.20140336  0.52817681  0.18585347
   0.20140378  0.52817686  0.29002349
   0.20140337  0.52817717  0.39305955
   0.20142283  0.77815658  0.08092431
   0.20140261  0.77817830  0.18585431
   0.20140984  0.77817208  0.28999394
   0.20140338  0.77817715  0.39312626
   0.70140151  0.02817665  0.08089496
   0.70140363  0.02817699  0.18585343
   0.70140401  0.02817681  0.29002355
   0.70140334  0.02817714  0.39305953
   0.70142268  0.27815667  0.08092433
   0.70140264  0.27817828  0.18585436
   0.70140973  0.27817213  0.28999393
   0.70140336  0.27817718  0.39312627
   0.70140012  0.52817867  0.08089462
   0.70140300  0.52817643  0.18585351
   0.70140379  0.52817690  0.29002349
   0.70140325  0.52817718  0.39305954
   0.70142360  0.77815689  0.08092436
   0.70140193  0.77817898  0.18585476
   0.70140985  0.77817201  0.28999397
   0.70140332  0.77817723  0.39312627
   0.45140053  0.02817552  0.08166890
   0.20118702  0.15315138  0.02889826
   0.45140876  0.02817302  0.18593021
   0.20138221  0.15442142  0.13380725
   0.45140462  0.02817660  0.29008523
   0.20121283  0.15296283  0.23805079
   0.45140620  0.02817492  0.39346826
   0.20137994  0.15228681  0.34241002
   0.45126732  0.15315033  0.02886170
   0.45140977  0.27817178  0.08169587
   0.20165755  0.40317837  0.02890170
   0.45404079  0.15181750  0.13367399
   0.45140515  0.27817558  0.18590010
   0.20142234  0.40193242  0.13380786
   0.45096880  0.15336578  0.23801492
   0.45140555  0.27817565  0.29012533
   0.20160014  0.40338358  0.23804923
   0.44969943  0.15401378  0.34230153
   0.45140535  0.27817534  0.39353456
   0.20142908  0.40406703  0.34240986
   0.45155269  0.40318605  0.02885236
   0.45140925  0.52817223  0.08166987
   0.20118873  0.65315130  0.02889793
   0.44876033  0.40453485  0.13367385
   0.45139353  0.52818213  0.18593190
   0.20138262  0.65442115  0.13380745
   0.45183990  0.40298846  0.23801558
   0.45140441  0.52817681  0.29008561
   0.20121166  0.65296266  0.23805142
   0.45310996  0.40233935  0.34230168
   0.45140625  0.52817486  0.39346841
   0.20137992  0.65228673  0.34241011
   0.45126826  0.65315024  0.02886206
   0.45139470  0.77818020  0.08169711
   0.20165744  0.90317890  0.02890190
   0.45405130  0.65181065  0.13367324
   0.45141146  0.77817392  0.18590088
   0.20141854  0.90192797  0.13381608
   0.45096990  0.65336544  0.23801554
   0.45140534  0.77817656  0.29012527
   0.20160040  0.90338367  0.23804958
   0.44969958  0.65401373  0.34230161
   0.45140535  0.77817539  0.39353455
   0.20142927  0.90406723  0.34240993
   0.45155191  0.90318628  0.02885241
   0.44876164  0.90453448  0.13367422
   0.45184009  0.90298904  0.23801481
   0.45310988  0.90233948  0.34230154
   0.95140910  0.02817239  0.08166982
   0.70118882  0.15315119  0.02889792
   0.95139349  0.02818213  0.18593188
   0.70138312  0.15442087  0.13380745
   0.95140455  0.02817664  0.29008560
   0.70121190  0.15296212  0.23805155
   0.95140630  0.02817485  0.39346841
   0.70137993  0.15228667  0.34241012
   0.95126845  0.15315010  0.02886209
   0.95139561  0.27817925  0.08169712
   0.70165753  0.40317876  0.02890192
   0.95405139  0.15181030  0.13367327
   0.95141288  0.27817263  0.18590088
   0.70141879  0.40192743  0.13381622
   0.95097087  0.15336479  0.23801570
   0.95140634  0.27817562  0.29012540
   0.70160083  0.40338347  0.23804962
   0.94969962  0.15401371  0.34230160
   0.95140549  0.27817525  0.39353456
   0.70142934  0.40406712  0.34240999
   0.95155208  0.40318621  0.02885241
   0.95140072  0.52817534  0.08166909
   0.70118712  0.65315142  0.02889826
   0.94875931  0.40453550  0.13367377
   0.95140865  0.52817307  0.18593048
   0.70138199  0.65442169  0.13380707
   0.95184027  0.40298874  0.23801539
   0.95140439  0.52817679  0.29008540
   0.70121275  0.65296191  0.23805161
   0.95311024  0.40233928  0.34230160
   0.95140642  0.52817480  0.39346836
   0.70138001  0.65228668  0.34241012
   0.95126722  0.65315033  0.02886174
   0.95140882  0.77817272  0.08169581
   0.70165760  0.90317842  0.02890167
   0.95404049  0.65181790  0.13367383
   0.95140370  0.77817688  0.18590010
   0.70142236  0.90193146  0.13380823
   0.95097042  0.65336508  0.23801574
   0.95140457  0.77817658  0.29012528
   0.70159610  0.90339221  0.23805050
   0.94969936  0.65401378  0.34230161
   0.95140544  0.77817531  0.39353456
   0.70142911  0.90406726  0.34240986
   0.95155262  0.90318613  0.02885231
   0.94875934  0.90453553  0.13367370
   0.95183982  0.90298872  0.23801558
   0.95310969  0.90233949  0.34230164
   0.19901631  0.05449019  0.49609238
   0.19860776  0.22159346  0.44978276
   0.19910000  0.05441495  0.59051999
   0.19918369  0.22107385  0.54135195
   0.19868318  0.05468821  0.68654228
   0.19885107  0.22125032  0.63920990
   0.19859833  0.05482267  0.78177434
   0.19864189  0.22141530  0.73449330
   0.19872703  0.05465162  0.87954431
   0.19883779  0.22139783  0.83048348
   0.19860300  0.05477741  0.97100115
   0.19883579  0.22120875  0.92485128
   0.53163890  0.05358031  0.49630307
   0.53270403  0.22042999  0.44985041
   0.53114341  0.05373895  0.59076460
   0.53316203  0.21920549  0.54197467
   0.53249471  0.05274625  0.68619958
   0.53224143  0.21975807  0.63874392
   0.53144051  0.05358793  0.78218448
   0.53247173  0.21936363  0.73482121
   0.53291204  0.05264803  0.87897373
   0.53128610  0.22011798  0.83012131
   0.53302797  0.05369502  0.97111027
   0.53197301  0.22007387  0.92455500
   0.19900828  0.38781933  0.49608207
   0.19850295  0.55511154  0.44982291
   0.19894879  0.38786649  0.59054408
   0.19918847  0.55443243  0.54135006
   0.19874673  0.38802187  0.68649417
   0.19897329  0.55455399  0.63921479
   0.19862194  0.38812146  0.78179033
   0.19865340  0.55480321  0.73446085
   0.19885383  0.38790065  0.87950474
   0.19860963  0.55484693  0.83051752
   0.19890704  0.38787029  0.97102363
   0.19889265  0.55453391  0.92486940
   0.86631383  0.05559305  0.49629283
   0.86469842  0.22216676  0.44987673
   0.86697293  0.05512222  0.59075987
   0.86476111  0.22298239  0.54200327
   0.86490401  0.05644989  0.68617719
   0.86572370  0.22242254  0.63877571
   0.86550849  0.05570249  0.78228339
   0.86485843  0.22316891  0.73486445
   0.86487366  0.05627131  0.87897403
   0.86676966  0.22194783  0.83025379
   0.86501842  0.05519958  0.97114769
   0.86561920  0.22231111  0.92468105
   0.53161418  0.38691099  0.49630902
   0.53328673  0.55345631  0.44991150
   0.53118972  0.38706621  0.59076922
   0.53347114  0.55248653  0.54193054
   0.53264067  0.38599133  0.68612766
   0.53264109  0.55328464  0.63880706
   0.53178368  0.38662386  0.78226089
   0.53269677  0.55248612  0.73480336
   0.53293439  0.38609238  0.87899870
   0.53125078  0.55348500  0.83021543
   0.53285995  0.38712996  0.97110987
   0.53179137  0.55347193  0.92466674
   0.19897333  0.72123867  0.49610926
   0.19841846  0.88835815  0.44982775
   0.19924782  0.72098648  0.59053697
   0.19921429  0.88764454  0.54138698
   0.19871837  0.72127705  0.68652035
   0.19907089  0.88775370  0.63925116
   0.19875870  0.72147278  0.78176859
   0.19876506  0.88811325  0.73450456
   0.19905412  0.72127622  0.87957591
   0.19872112  0.88810662  0.83047682
   0.19856150  0.72132923  0.97101735
   0.19893717  0.88784272  0.92484020
   0.86641289  0.38883619  0.49631942
   0.86478585  0.55556555  0.44988188
   0.86698188  0.38862417  0.59073203
   0.86474662  0.55643425  0.54202727
   0.86517724  0.38975737  0.68618289
   0.86561014  0.55592205  0.63878462
   0.86551742  0.38880367  0.78231145
   0.86489908  0.55647448  0.73485332
   0.86506237  0.38945787  0.87903232
   0.86668218  0.55526144  0.83023090
   0.86491641  0.38878180  0.97110790
   0.86589760  0.55560175  0.92465171
   0.53179126  0.72029888  0.49634711
   0.53294452  0.88693414  0.44986209
   0.53130805  0.72032157  0.59076141
   0.53337343  0.88585926  0.54194306
   0.53232538  0.71956817  0.68622526
   0.53230369  0.88651782  0.63877987
   0.53180274  0.71998138  0.78225772
   0.53263605  0.88595084  0.73478302
   0.53287973  0.71949327  0.87896920
   0.53087843  0.88706209  0.83014816
   0.53294774  0.72035959  0.97112845
   0.53182225  0.88679809  0.92463592
   0.86633945  0.72227383  0.49631339
   0.86473993  0.88881157  0.44988001
   0.86691120  0.72195522  0.59076582
   0.86460299  0.88967266  0.54203099
   0.86505838  0.72315637  0.68620461
   0.86568627  0.88916957  0.63877863
   0.86539489  0.72234111  0.78227893
   0.86500298  0.88964582  0.73487293
   0.86472846  0.72297496  0.87901072
   0.86665457  0.88861957  0.83023732
   0.86502548  0.72194400  0.97114343
   0.86551181  0.88918850  0.92464424
   0.45143706  0.02815547  0.02993970
   0.45140444  0.02817424  0.13382483
   0.45140472  0.02817680  0.23803015
   0.45140554  0.02817565  0.34225817
   0.45143802  0.27815623  0.02994605
   0.45140333  0.27817531  0.13382808
   0.45140499  0.27817621  0.23802399
   0.45140548  0.27817598  0.34230430
   0.45143759  0.52815533  0.02994017
   0.45140260  0.52817429  0.13382587
   0.45140492  0.52817631  0.23803105
   0.45140544  0.52817571  0.34225834
   0.45143706  0.77815696  0.02994666
   0.45140053  0.77817603  0.13382891
   0.45140533  0.77817668  0.23802421
   0.45140508  0.77817625  0.34230428
   0.95143760  0.02815532  0.02994014
   0.95140267  0.02817421  0.13382586
   0.95140477  0.02817645  0.23803104
   0.95140547  0.02817566  0.34225833
   0.95143707  0.27815693  0.02994668
   0.95140077  0.27817563  0.13382894
   0.95140612  0.27817610  0.23802427
   0.95140509  0.27817597  0.34230434
   0.95143704  0.52815549  0.02993980
   0.95140423  0.52817443  0.13382493
   0.95140546  0.52817603  0.23803051
   0.95140503  0.52817614  0.34225836
   0.95143797  0.77815626  0.02994603
   0.95140293  0.77817572  0.13382804
   0.95140487  0.77817676  0.23802394
   0.95140501  0.77817625  0.34230429
