  12  12   0   0
  0.5144862E+02  0.4195452E-09  0.4195452E-09  0.3507498E-08  0.5000000E-15
  1.000000000000000E-004
  CAR 
 unknown system                          
      5.22039770     -4.58956879  301     -0.24887909      1.00000000
     -4.590  0.0000E+00  0.0000E+00
     -4.557  0.0000E+00  0.0000E+00
     -4.524  0.0000E+00  0.0000E+00
     -4.491  0.0000E+00  0.0000E+00
     -4.459  0.0000E+00  0.0000E+00
     -4.426  0.0000E+00  0.0000E+00
     -4.393  0.0000E+00  0.0000E+00
     -4.361  0.0000E+00  0.0000E+00
     -4.328  0.0000E+00  0.0000E+00
     -4.295  0.0000E+00  0.0000E+00
     -4.263  0.0000E+00  0.0000E+00
     -4.230  0.0000E+00  0.0000E+00
     -4.197  0.0000E+00  0.0000E+00
     -4.164  0.1509E-14  0.4934E-16
     -4.132  0.5772E-13  0.1937E-14
     -4.099  0.1907E-11  0.6428E-13
     -4.066  0.5075E-10  0.1724E-11
     -4.034  0.1094E-08  0.3749E-10
     -4.001  0.1908E-07  0.6613E-09
     -3.968  0.2694E-06  0.9472E-08
     -3.936  0.3081E-05  0.1102E-06
     -3.903  0.2854E-04  0.1043E-05
     -3.870  0.2140E-03  0.8042E-05
     -3.837  0.1300E-02  0.5057E-04
     -3.805  0.6401E-02  0.2599E-03
     -3.772  0.2553E-01  0.1095E-02
     -3.739  0.8251E-01  0.3793E-02
     -3.707  0.2161E+00  0.1086E-01
     -3.674  0.4592E+00  0.2588E-01
     -3.641  0.7925E+00  0.5179E-01
     -3.609  0.1116E+01  0.8829E-01
     -3.576  0.1301E+01  0.1308E+00
     -3.543  0.1302E+01  0.1734E+00
     -3.510  0.1217E+01  0.2132E+00
     -3.478  0.1191E+01  0.2522E+00
     -3.445  0.1263E+01  0.2935E+00
     -3.412  0.1322E+01  0.3367E+00
     -3.380  0.1227E+01  0.3768E+00
     -3.347  0.9616E+00  0.4083E+00
     -3.314  0.6401E+00  0.4292E+00
     -3.282  0.4158E+00  0.4428E+00
     -3.249  0.3856E+00  0.4554E+00
     -3.216  0.5611E+00  0.4737E+00
     -3.183  0.8653E+00  0.5020E+00
     -3.151  0.1146E+01  0.5395E+00
     -3.118  0.1242E+01  0.5801E+00
     -3.085  0.1093E+01  0.6158E+00
     -3.053  0.7798E+00  0.6413E+00
     -3.020  0.4517E+00  0.6561E+00
     -2.987  0.2157E+00  0.6632E+00
     -2.955  0.9871E-01  0.6664E+00
     -2.922  0.8769E-01  0.6693E+00
     -2.889  0.1811E+00  0.6752E+00
     -2.856  0.3988E+00  0.6882E+00
     -2.824  0.7489E+00  0.7127E+00
     -2.791  0.1202E+01  0.7520E+00
     -2.758  0.1733E+01  0.8087E+00
     -2.726  0.2399E+01  0.8871E+00
     -2.693  0.3291E+01  0.9947E+00
     -2.660  0.4335E+01  0.1137E+01
     -2.628  0.5174E+01  0.1306E+01
     -2.595  0.5434E+01  0.1483E+01
     -2.562  0.5165E+01  0.1652E+01
     -2.529  0.4865E+01  0.1811E+01
     -2.497  0.4957E+01  0.1973E+01
     -2.464  0.5308E+01  0.2147E+01
     -2.431  0.5382E+01  0.2323E+01
     -2.399  0.4846E+01  0.2481E+01
     -2.366  0.3910E+01  0.2609E+01
     -2.333  0.3091E+01  0.2710E+01
     -2.301  0.2782E+01  0.2801E+01
     -2.268  0.3090E+01  0.2902E+01
     -2.235  0.3882E+01  0.3029E+01
     -2.202  0.4782E+01  0.3186E+01
     -2.170  0.5243E+01  0.3357E+01
     -2.137  0.4867E+01  0.3516E+01
     -2.104  0.3735E+01  0.3638E+01
     -2.072  0.2346E+01  0.3715E+01
     -2.039  0.1209E+01  0.3755E+01
     -2.006  0.5518E+00  0.3773E+01
     -1.974  0.3716E+00  0.3785E+01
     -1.941  0.6547E+00  0.3806E+01
     -1.908  0.1483E+01  0.3855E+01
     -1.875  0.2904E+01  0.3950E+01
     -1.843  0.4689E+01  0.4103E+01
     -1.810  0.6294E+01  0.4309E+01
     -1.777  0.7208E+01  0.4545E+01
     -1.745  0.7375E+01  0.4786E+01
     -1.712  0.7138E+01  0.5019E+01
     -1.679  0.6764E+01  0.5240E+01
     -1.647  0.6236E+01  0.5444E+01
     -1.614  0.5568E+01  0.5626E+01
     -1.581  0.5072E+01  0.5792E+01
     -1.548  0.5075E+01  0.5958E+01
     -1.516  0.5484E+01  0.6137E+01
     -1.483  0.5859E+01  0.6329E+01
     -1.450  0.5942E+01  0.6523E+01
     -1.418  0.5926E+01  0.6717E+01
     -1.385  0.6116E+01  0.6917E+01
     -1.352  0.6522E+01  0.7130E+01
     -1.320  0.6926E+01  0.7357E+01
     -1.287  0.7217E+01  0.7593E+01
     -1.254  0.7381E+01  0.7834E+01
     -1.221  0.7241E+01  0.8071E+01
     -1.189  0.6496E+01  0.8283E+01
     -1.156  0.5092E+01  0.8450E+01
     -1.123  0.3392E+01  0.8561E+01
     -1.091  0.1908E+01  0.8623E+01
     -1.058  0.9670E+00  0.8655E+01
     -1.025  0.6712E+00  0.8677E+01
     -0.993  0.1093E+01  0.8713E+01
     -0.960  0.2385E+01  0.8791E+01
     -0.927  0.4590E+01  0.8941E+01
     -0.894  0.7254E+01  0.9178E+01
     -0.862  0.9335E+01  0.9483E+01
     -0.829  0.9776E+01  0.9803E+01
     -0.796  0.8329E+01  0.1008E+02
     -0.764  0.5774E+01  0.1026E+02
     -0.731  0.3264E+01  0.1037E+02
     -0.698  0.1530E+01  0.1042E+02
     -0.666  0.6734E+00  0.1044E+02
     -0.633  0.4683E+00  0.1046E+02
     -0.600  0.6877E+00  0.1048E+02
     -0.567  0.1212E+01  0.1052E+02
     -0.535  0.1998E+01  0.1059E+02
     -0.502  0.3022E+01  0.1068E+02
     -0.469  0.4178E+01  0.1082E+02
     -0.437  0.5182E+01  0.1099E+02
     -0.404  0.5674E+01  0.1118E+02
     -0.371  0.5563E+01  0.1136E+02
     -0.339  0.5210E+01  0.1153E+02
     -0.306  0.5106E+01  0.1170E+02
     -0.273  0.5311E+01  0.1187E+02
     -0.240  0.5362E+01  0.1204E+02
     -0.208  0.4776E+01  0.1220E+02
     -0.175  0.3567E+01  0.1232E+02
     -0.142  0.2199E+01  0.1239E+02
     -0.110  0.1159E+01  0.1243E+02
     -0.077  0.6890E+00  0.1245E+02
     -0.044  0.8474E+00  0.1248E+02
     -0.012  0.1663E+01  0.1253E+02
      0.021  0.3110E+01  0.1263E+02
      0.054  0.4956E+01  0.1280E+02
      0.087  0.6759E+01  0.1302E+02
      0.119  0.8074E+01  0.1328E+02
      0.152  0.8659E+01  0.1356E+02
      0.185  0.8489E+01  0.1384E+02
      0.217  0.7770E+01  0.1410E+02
      0.250  0.7027E+01  0.1432E+02
      0.283  0.6976E+01  0.1455E+02
      0.315  0.7941E+01  0.1481E+02
      0.348  0.9353E+01  0.1512E+02
      0.381  0.1004E+02  0.1545E+02
      0.414  0.9190E+01  0.1575E+02
      0.446  0.7093E+01  0.1598E+02
      0.479  0.4884E+01  0.1614E+02
      0.512  0.3723E+01  0.1626E+02
      0.544  0.4138E+01  0.1640E+02
      0.577  0.5857E+01  0.1659E+02
      0.610  0.7962E+01  0.1685E+02
      0.642  0.9317E+01  0.1715E+02
      0.675  0.9227E+01  0.1745E+02
      0.708  0.7949E+01  0.1771E+02
      0.741  0.6583E+01  0.1793E+02
      0.773  0.6336E+01  0.1814E+02
      0.806  0.7632E+01  0.1839E+02
      0.839  0.9727E+01  0.1870E+02
      0.871  0.1120E+02  0.1907E+02
      0.904  0.1106E+02  0.1943E+02
      0.937  0.9538E+01  0.1974E+02
      0.969  0.7760E+01  0.2000E+02
      1.002  0.6616E+01  0.2021E+02
      1.035  0.6103E+01  0.2041E+02
      1.068  0.5718E+01  0.2060E+02
      1.100  0.5306E+01  0.2077E+02
      1.133  0.5371E+01  0.2095E+02
      1.166  0.6572E+01  0.2116E+02
      1.198  0.8997E+01  0.2146E+02
      1.231  0.1192E+02  0.2185E+02
      1.264  0.1420E+02  0.2231E+02
      1.296  0.1512E+02  0.2281E+02
      1.329  0.1480E+02  0.2329E+02
      1.362  0.1405E+02  0.2375E+02
      1.395  0.1353E+02  0.2419E+02
      1.427  0.1323E+02  0.2463E+02
      1.460  0.1280E+02  0.2504E+02
      1.493  0.1204E+02  0.2544E+02
      1.525  0.1110E+02  0.2580E+02
      1.558  0.1026E+02  0.2614E+02
      1.591  0.9612E+01  0.2645E+02
      1.623  0.9156E+01  0.2675E+02
      1.656  0.9013E+01  0.2704E+02
      1.689  0.9521E+01  0.2736E+02
      1.722  0.1094E+02  0.2771E+02
      1.754  0.1291E+02  0.2814E+02
      1.787  0.1438E+02  0.2861E+02
      1.820  0.1436E+02  0.2908E+02
      1.852  0.1277E+02  0.2949E+02
      1.885  0.1049E+02  0.2984E+02
      1.918  0.8518E+01  0.3011E+02
      1.950  0.7148E+01  0.3035E+02
      1.983  0.5986E+01  0.3054E+02
      2.016  0.4615E+01  0.3069E+02
      2.049  0.3071E+01  0.3080E+02
      2.081  0.1717E+01  0.3085E+02
      2.114  0.8366E+00  0.3088E+02
      2.147  0.4662E+00  0.3089E+02
      2.179  0.4915E+00  0.3091E+02
      2.212  0.7658E+00  0.3094E+02
      2.245  0.1138E+01  0.3097E+02
      2.277  0.1464E+01  0.3102E+02
      2.310  0.1662E+01  0.3107E+02
      2.343  0.1731E+01  0.3113E+02
      2.376  0.1694E+01  0.3119E+02
      2.408  0.1535E+01  0.3124E+02
      2.441  0.1239E+01  0.3128E+02
      2.474  0.8559E+00  0.3131E+02
      2.506  0.4930E+00  0.3132E+02
      2.539  0.2333E+00  0.3133E+02
      2.572  0.9009E-01  0.3133E+02
      2.604  0.2827E-01  0.3133E+02
      2.637  0.7198E-02  0.3133E+02
      2.670  0.1486E-02  0.3133E+02
      2.703  0.2486E-03  0.3133E+02
      2.735  0.3369E-04  0.3133E+02
      2.768  0.3699E-05  0.3133E+02
      2.801  0.3288E-06  0.3133E+02
      2.833  0.2367E-07  0.3133E+02
      2.866  0.1380E-08  0.3133E+02
      2.899  0.6510E-10  0.3133E+02
      2.931  0.2487E-11  0.3133E+02
      2.964  0.7696E-13  0.3133E+02
      2.997  0.1509E-14  0.3133E+02
      3.030  0.3772E-15  0.3133E+02
      3.062  0.1735E-13  0.3133E+02
      3.095  0.6085E-12  0.3133E+02
      3.128  0.1749E-10  0.3133E+02
      3.160  0.4073E-09  0.3133E+02
      3.193  0.7687E-08  0.3133E+02
      3.226  0.1177E-06  0.3133E+02
      3.258  0.1463E-05  0.3133E+02
      3.291  0.1476E-04  0.3133E+02
      3.324  0.1211E-03  0.3133E+02
      3.357  0.8082E-03  0.3133E+02
      3.389  0.4393E-02  0.3133E+02
      3.422  0.1947E-01  0.3133E+02
      3.455  0.7046E-01  0.3134E+02
      3.487  0.2084E+00  0.3134E+02
      3.520  0.5048E+00  0.3136E+02
      3.553  0.1002E+01  0.3139E+02
      3.585  0.1633E+01  0.3145E+02
      3.618  0.2185E+01  0.3152E+02
      3.651  0.2403E+01  0.3160E+02
      3.684  0.2173E+01  0.3167E+02
      3.716  0.1614E+01  0.3172E+02
      3.749  0.9852E+00  0.3175E+02
      3.782  0.4934E+00  0.3177E+02
      3.814  0.2026E+00  0.3177E+02
      3.847  0.6808E-01  0.3178E+02
      3.880  0.1871E-01  0.3178E+02
      3.912  0.4235E-02  0.3178E+02
      3.945  0.1058E-02  0.3178E+02
      3.978  0.1823E-02  0.3178E+02
      4.011  0.8142E-02  0.3178E+02
      4.043  0.3133E-01  0.3178E+02
      4.076  0.9783E-01  0.3178E+02
      4.109  0.2476E+00  0.3179E+02
      4.141  0.5078E+00  0.3181E+02
      4.174  0.8441E+00  0.3183E+02
      4.207  0.1137E+01  0.3187E+02
      4.239  0.1242E+01  0.3191E+02
      4.272  0.1099E+01  0.3195E+02
      4.305  0.7885E+00  0.3197E+02
      4.338  0.4584E+00  0.3199E+02
      4.370  0.2160E+00  0.3200E+02
      4.403  0.8249E-01  0.3200E+02
      4.436  0.2553E-01  0.3200E+02
      4.468  0.6401E-02  0.3200E+02
      4.501  0.1300E-02  0.3200E+02
      4.534  0.2140E-03  0.3200E+02
      4.566  0.2854E-04  0.3200E+02
      4.599  0.3081E-05  0.3200E+02
      4.632  0.2694E-06  0.3200E+02
      4.664  0.1908E-07  0.3200E+02
      4.697  0.1094E-08  0.3200E+02
      4.730  0.5075E-10  0.3200E+02
      4.763  0.1907E-11  0.3200E+02
      4.795  0.5734E-13  0.3200E+02
      4.828  0.1509E-14  0.3200E+02
      4.861  0.0000E+00  0.3200E+02
      4.893  0.0000E+00  0.3200E+02
      4.926  0.0000E+00  0.3200E+02
      4.959  0.0000E+00  0.3200E+02
      4.991  0.0000E+00  0.3200E+02
      5.024  0.0000E+00  0.3200E+02
      5.057  0.0000E+00  0.3200E+02
      5.090  0.0000E+00  0.3200E+02
      5.122  0.0000E+00  0.3200E+02
      5.155  0.0000E+00  0.3200E+02
      5.188  0.0000E+00  0.3200E+02
      5.220  0.0000E+00  0.3200E+02
