unknown system                          
           1
     0.000000    4.195452    0.000000
     4.195452    0.000000    0.000000
     0.000000    0.000000  -35.074983
   Na
    12
Direct configuration=     1
   0.00000010  0.00000010  0.23086889
   0.50000095  0.50000095  0.17106210
   0.00000010  0.00000010  0.35048270
   0.50000095  0.50000095  0.29067590
   0.00000010  0.00000010  0.47009650
   0.50000095  0.50000095  0.41028970
   0.00000010  0.00000010  0.58971030
   0.50000095  0.50000095  0.52990350
   0.00000010  0.00000010  0.70932410
   0.50000095  0.50000095  0.64951730
   0.00000010  0.00000010  0.82893790
   0.50000095  0.50000095  0.76913111
