 268 268   0   0
  0.2624764E+02  0.1259686E-08  0.1781465E-08  0.4433026E-08  0.5000000E-15
  1.000000000000000E-004
  CAR 
 unknown system                          
      7.19369192    -15.95707510  301      1.38619932      1.00000000
    -15.957  0.0000E+00  0.0000E+00
    -15.880  0.0000E+00  0.0000E+00
    -15.803  0.0000E+00  0.0000E+00
    -15.726  0.0000E+00  0.0000E+00
    -15.648  0.0000E+00  0.0000E+00
    -15.571  0.0000E+00  0.0000E+00
    -15.494  0.7193E-15  0.5551E-16
    -15.417  0.2983E-11  0.2303E-12
    -15.340  0.5406E-08  0.4174E-09
    -15.263  0.3159E-05  0.2442E-06
    -15.185  0.6185E-03  0.4798E-04
    -15.108  0.4327E-01  0.3387E-02
    -15.031  0.1187E+01  0.9497E-01
    -14.954  0.1418E+02  0.1189E+01
    -14.877  0.7923E+02  0.7303E+01
    -14.800  0.2100E+03  0.2351E+02
    -14.722  0.2672E+03  0.4412E+02
    -14.645  0.2208E+03  0.6117E+02
    -14.568  0.2734E+03  0.8226E+02
    -14.491  0.3359E+03  0.1082E+03
    -14.414  0.2020E+03  0.1238E+03
    -14.337  0.4988E+02  0.1276E+03
    -14.259  0.4768E+01  0.1280E+03
    -14.182  0.1695E+00  0.1280E+03
    -14.105  0.2167E-02  0.1280E+03
    -14.028  0.9667E-05  0.1280E+03
    -13.951  0.1466E-07  0.1280E+03
    -13.874  0.7391E-11  0.1280E+03
    -13.796  0.0000E+00  0.1280E+03
    -13.719  0.0000E+00  0.1280E+03
    -13.642  0.0000E+00  0.1280E+03
    -13.565  0.0000E+00  0.1280E+03
    -13.488  0.0000E+00  0.1280E+03
    -13.410  0.0000E+00  0.1280E+03
    -13.333  0.0000E+00  0.1280E+03
    -13.256  0.0000E+00  0.1280E+03
    -13.179  0.0000E+00  0.1280E+03
    -13.102  0.0000E+00  0.1280E+03
    -13.025  0.0000E+00  0.1280E+03
    -12.947  0.0000E+00  0.1280E+03
    -12.870  0.0000E+00  0.1280E+03
    -12.793  0.0000E+00  0.1280E+03
    -12.716  0.0000E+00  0.1280E+03
    -12.639  0.0000E+00  0.1280E+03
    -12.562  0.0000E+00  0.1280E+03
    -12.484  0.0000E+00  0.1280E+03
    -12.407  0.0000E+00  0.1280E+03
    -12.330  0.0000E+00  0.1280E+03
    -12.253  0.0000E+00  0.1280E+03
    -12.176  0.0000E+00  0.1280E+03
    -12.099  0.0000E+00  0.1280E+03
    -12.021  0.0000E+00  0.1280E+03
    -11.944  0.0000E+00  0.1280E+03
    -11.867  0.0000E+00  0.1280E+03
    -11.790  0.0000E+00  0.1280E+03
    -11.713  0.0000E+00  0.1280E+03
    -11.636  0.0000E+00  0.1280E+03
    -11.558  0.0000E+00  0.1280E+03
    -11.481  0.0000E+00  0.1280E+03
    -11.404  0.0000E+00  0.1280E+03
    -11.327  0.0000E+00  0.1280E+03
    -11.250  0.0000E+00  0.1280E+03
    -11.173  0.0000E+00  0.1280E+03
    -11.095  0.0000E+00  0.1280E+03
    -11.018  0.0000E+00  0.1280E+03
    -10.941  0.0000E+00  0.1280E+03
    -10.864  0.0000E+00  0.1280E+03
    -10.787  0.0000E+00  0.1280E+03
    -10.710  0.0000E+00  0.1280E+03
    -10.632  0.0000E+00  0.1280E+03
    -10.555  0.0000E+00  0.1280E+03
    -10.478  0.0000E+00  0.1280E+03
    -10.401  0.0000E+00  0.1280E+03
    -10.324  0.0000E+00  0.1280E+03
    -10.247  0.0000E+00  0.1280E+03
    -10.169  0.0000E+00  0.1280E+03
    -10.092  0.0000E+00  0.1280E+03
    -10.015  0.0000E+00  0.1280E+03
     -9.938  0.0000E+00  0.1280E+03
     -9.861  0.0000E+00  0.1280E+03
     -9.784  0.0000E+00  0.1280E+03
     -9.706  0.0000E+00  0.1280E+03
     -9.629  0.0000E+00  0.1280E+03
     -9.552  0.0000E+00  0.1280E+03
     -9.475  0.0000E+00  0.1280E+03
     -9.398  0.0000E+00  0.1280E+03
     -9.321  0.0000E+00  0.1280E+03
     -9.243  0.0000E+00  0.1280E+03
     -9.166  0.0000E+00  0.1280E+03
     -9.089  0.0000E+00  0.1280E+03
     -9.012  0.0000E+00  0.1280E+03
     -8.935  0.0000E+00  0.1280E+03
     -8.858  0.0000E+00  0.1280E+03
     -8.780  0.0000E+00  0.1280E+03
     -8.703  0.0000E+00  0.1280E+03
     -8.626  0.0000E+00  0.1280E+03
     -8.549  0.0000E+00  0.1280E+03
     -8.472  0.0000E+00  0.1280E+03
     -8.394  0.0000E+00  0.1280E+03
     -8.317  0.0000E+00  0.1280E+03
     -8.240  0.0000E+00  0.1280E+03
     -8.163  0.0000E+00  0.1280E+03
     -8.086  0.0000E+00  0.1280E+03
     -8.009  0.0000E+00  0.1280E+03
     -7.931  0.0000E+00  0.1280E+03
     -7.854  0.0000E+00  0.1280E+03
     -7.777  0.0000E+00  0.1280E+03
     -7.700  0.0000E+00  0.1280E+03
     -7.623  0.0000E+00  0.1280E+03
     -7.546  0.0000E+00  0.1280E+03
     -7.468  0.0000E+00  0.1280E+03
     -7.391  0.0000E+00  0.1280E+03
     -7.314  0.0000E+00  0.1280E+03
     -7.237  0.0000E+00  0.1280E+03
     -7.160  0.0000E+00  0.1280E+03
     -7.083  0.0000E+00  0.1280E+03
     -7.005  0.0000E+00  0.1280E+03
     -6.928  0.0000E+00  0.1280E+03
     -6.851  0.0000E+00  0.1280E+03
     -6.774  0.0000E+00  0.1280E+03
     -6.697  0.0000E+00  0.1280E+03
     -6.620  0.0000E+00  0.1280E+03
     -6.542  0.0000E+00  0.1280E+03
     -6.465  0.0000E+00  0.1280E+03
     -6.388  0.0000E+00  0.1280E+03
     -6.311  0.0000E+00  0.1280E+03
     -6.234  0.0000E+00  0.1280E+03
     -6.157  0.0000E+00  0.1280E+03
     -6.079  0.0000E+00  0.1280E+03
     -6.002  0.0000E+00  0.1280E+03
     -5.925  0.0000E+00  0.1280E+03
     -5.848  0.0000E+00  0.1280E+03
     -5.771  0.0000E+00  0.1280E+03
     -5.694  0.0000E+00  0.1280E+03
     -5.616  0.0000E+00  0.1280E+03
     -5.539  0.0000E+00  0.1280E+03
     -5.462  0.0000E+00  0.1280E+03
     -5.385  0.0000E+00  0.1280E+03
     -5.308  0.0000E+00  0.1280E+03
     -5.231  0.0000E+00  0.1280E+03
     -5.153  0.0000E+00  0.1280E+03
     -5.076  0.0000E+00  0.1280E+03
     -4.999  0.0000E+00  0.1280E+03
     -4.922  0.0000E+00  0.1280E+03
     -4.845  0.0000E+00  0.1280E+03
     -4.768  0.0000E+00  0.1280E+03
     -4.690  0.0000E+00  0.1280E+03
     -4.613  0.0000E+00  0.1280E+03
     -4.536  0.0000E+00  0.1280E+03
     -4.459  0.0000E+00  0.1280E+03
     -4.382  0.0000E+00  0.1280E+03
     -4.305  0.0000E+00  0.1280E+03
     -4.227  0.1014E-11  0.1280E+03
     -4.150  0.2654E-08  0.1280E+03
     -4.073  0.2212E-05  0.1280E+03
     -3.996  0.5971E-03  0.1280E+03
     -3.919  0.5344E-01  0.1280E+03
     -3.842  0.1648E+01  0.1281E+03
     -3.764  0.1860E+02  0.1296E+03
     -3.687  0.8399E+02  0.1360E+03
     -3.610  0.1711E+03  0.1493E+03
     -3.533  0.1917E+03  0.1640E+03
     -3.456  0.1942E+03  0.1790E+03
     -3.378  0.2758E+03  0.2003E+03
     -3.301  0.3318E+03  0.2259E+03
     -3.224  0.2766E+03  0.2473E+03
     -3.147  0.2030E+03  0.2629E+03
     -3.070  0.1653E+03  0.2757E+03
     -2.993  0.1870E+03  0.2901E+03
     -2.915  0.1912E+03  0.3049E+03
     -2.838  0.1254E+03  0.3145E+03
     -2.761  0.5522E+02  0.3188E+03
     -2.684  0.1387E+02  0.3199E+03
     -2.607  0.1499E+01  0.3200E+03
     -2.530  0.5986E-01  0.3200E+03
     -2.452  0.8243E-03  0.3200E+03
     -2.375  0.3769E-05  0.3200E+03
     -2.298  0.5585E-08  0.3200E+03
     -2.221  0.4078E-08  0.3200E+03
     -2.144  0.2297E-05  0.3200E+03
     -2.067  0.4077E-03  0.3200E+03
     -1.989  0.2310E-01  0.3200E+03
     -1.912  0.4251E+00  0.3200E+03
     -1.835  0.2615E+01  0.3202E+03
     -1.758  0.5828E+01  0.3207E+03
     -1.681  0.6601E+01  0.3212E+03
     -1.604  0.6248E+01  0.3217E+03
     -1.526  0.3791E+01  0.3220E+03
     -1.449  0.3841E+01  0.3223E+03
     -1.372  0.1248E+02  0.3232E+03
     -1.295  0.2502E+02  0.3252E+03
     -1.218  0.2872E+02  0.3274E+03
     -1.141  0.2830E+02  0.3296E+03
     -1.063  0.2383E+02  0.3314E+03
     -0.986  0.2682E+02  0.3335E+03
     -0.909  0.4800E+02  0.3372E+03
     -0.832  0.7856E+02  0.3432E+03
     -0.755  0.1206E+03  0.3525E+03
     -0.678  0.1776E+03  0.3662E+03
     -0.600  0.2785E+03  0.3877E+03
     -0.523  0.3548E+03  0.4151E+03
     -0.446  0.3605E+03  0.4429E+03
     -0.369  0.3473E+03  0.4697E+03
     -0.292  0.3532E+03  0.4970E+03
     -0.215  0.3330E+03  0.5227E+03
     -0.137  0.2104E+03  0.5389E+03
     -0.060  0.7966E+02  0.5451E+03
      0.017  0.4823E+02  0.5488E+03
      0.094  0.5459E+02  0.5530E+03
      0.171  0.4481E+02  0.5565E+03
      0.248  0.3141E+02  0.5589E+03
      0.326  0.2656E+02  0.5609E+03
      0.403  0.2431E+02  0.5628E+03
      0.480  0.4252E+02  0.5661E+03
      0.557  0.7833E+02  0.5721E+03
      0.634  0.8978E+02  0.5791E+03
      0.711  0.6956E+02  0.5844E+03
      0.789  0.5606E+02  0.5888E+03
      0.866  0.4394E+02  0.5922E+03
      0.943  0.5668E+02  0.5965E+03
      1.020  0.7845E+02  0.6026E+03
      1.097  0.6160E+02  0.6073E+03
      1.174  0.3573E+02  0.6101E+03
      1.252  0.2790E+02  0.6122E+03
      1.329  0.5011E+02  0.6161E+03
      1.406  0.6554E+02  0.6212E+03
      1.483  0.3749E+02  0.6241E+03
      1.560  0.2392E+02  0.6259E+03
      1.638  0.2574E+02  0.6279E+03
      1.715  0.3852E+02  0.6309E+03
      1.792  0.6955E+02  0.6362E+03
      1.869  0.7141E+02  0.6417E+03
      1.946  0.4673E+02  0.6454E+03
      2.023  0.3493E+02  0.6480E+03
      2.101  0.4014E+02  0.6511E+03
      2.178  0.5811E+02  0.6556E+03
      2.255  0.7827E+02  0.6617E+03
      2.332  0.1023E+03  0.6696E+03
      2.409  0.9714E+02  0.6771E+03
      2.486  0.6076E+02  0.6818E+03
      2.564  0.4143E+02  0.6849E+03
      2.641  0.5309E+02  0.6890E+03
      2.718  0.6411E+02  0.6940E+03
      2.795  0.7061E+02  0.6994E+03
      2.872  0.8235E+02  0.7058E+03
      2.949  0.9636E+02  0.7132E+03
      3.027  0.9936E+02  0.7209E+03
      3.104  0.9640E+02  0.7283E+03
      3.181  0.9381E+02  0.7356E+03
      3.258  0.8022E+02  0.7418E+03
      3.335  0.6574E+02  0.7468E+03
      3.412  0.7351E+02  0.7525E+03
      3.490  0.9481E+02  0.7598E+03
      3.567  0.1187E+03  0.7690E+03
      3.644  0.1046E+03  0.7771E+03
      3.721  0.8250E+02  0.7834E+03
      3.798  0.7937E+02  0.7896E+03
      3.875  0.7689E+02  0.7955E+03
      3.953  0.6139E+02  0.8002E+03
      4.030  0.6311E+02  0.8051E+03
      4.107  0.8278E+02  0.8115E+03
      4.184  0.9633E+02  0.8189E+03
      4.261  0.8840E+02  0.8257E+03
      4.338  0.7862E+02  0.8318E+03
      4.416  0.6378E+02  0.8367E+03
      4.493  0.3766E+02  0.8396E+03
      4.570  0.2187E+02  0.8413E+03
      4.647  0.1392E+02  0.8424E+03
      4.724  0.1665E+02  0.8437E+03
      4.801  0.2493E+02  0.8456E+03
      4.879  0.2200E+02  0.8473E+03
      4.956  0.1087E+02  0.8481E+03
      5.033  0.1027E+02  0.8489E+03
      5.110  0.1990E+02  0.8505E+03
      5.187  0.3087E+02  0.8529E+03
      5.264  0.4370E+02  0.8562E+03
      5.342  0.5859E+02  0.8607E+03
      5.419  0.6192E+02  0.8655E+03
      5.496  0.5964E+02  0.8701E+03
      5.573  0.6831E+02  0.8754E+03
      5.650  0.7164E+02  0.8809E+03
      5.727  0.6814E+02  0.8862E+03
      5.805  0.5511E+02  0.8904E+03
      5.882  0.3437E+02  0.8931E+03
      5.959  0.1667E+02  0.8944E+03
      6.036  0.7294E+01  0.8949E+03
      6.113  0.5113E+01  0.8953E+03
      6.190  0.5467E+01  0.8958E+03
      6.268  0.2682E+01  0.8960E+03
      6.345  0.4543E+00  0.8960E+03
      6.422  0.2553E-01  0.8960E+03
      6.499  0.4659E-03  0.8960E+03
      6.576  0.2714E-05  0.8960E+03
      6.654  0.4980E-08  0.8960E+03
      6.731  0.2854E-11  0.8960E+03
      6.808  0.0000E+00  0.8960E+03
      6.885  0.0000E+00  0.8960E+03
      6.962  0.0000E+00  0.8960E+03
      7.039  0.0000E+00  0.8960E+03
      7.117  0.0000E+00  0.8960E+03
      7.194  0.0000E+00  0.8960E+03
