 vasp.6.2.1 16May21 (build Dec 23 2021 00:35:04) complex                        
  
 executed on             LinuxIFC date 2023.03.28  00:32:31
 running on  120 total cores
 distrk:  each k-point on  120 cores,    1 groups
 distr:  one band on NCORE=  15 cores,    8 groups


--------------------------------------------------------------------------------------------------------


 INCAR:
   AMIN = 0.010000
   ENCUT = 400.000000
   KSPACING = 0.500000
   SIGMA = 0.100000
   EDIFF = 1.00e-08
   EDIFFG = -1.00e-02
   ALGO = Fast
   GGA = PE
   PREC = Normal
   IBRION = -1
   ISIF = 3
   ISMEAR = 0
   ISPIN = 0
   LMAXMIX = 6
   NELM = 150
   NPAR = 8
   NSW = 0
   NWRITE = 1
   KGAMMA = .TRUE.
   LASPH = .TRUE.
   LCHARG = .FALSE.
   LWAVE = .FALSE.
   LREAL = AUTO

 POTCAR:    PAW_PBE Cl 06Sep2000                  
 POTCAR:    PAW_PBE Na 08Apr2002                  
 POTCAR:    PAW_PBE O 08Apr2002                   
 POTCAR:    PAW_PBE Cl 06Sep2000                  
  local pseudopotential read in
  partial core-charges read in
  partial kinetic energy density read in
  atomic valenz-charges read in
  non local Contribution for L=           0  read in
    real space projection operators read in
  non local Contribution for L=           0  read in
    real space projection operators read in
  non local Contribution for L=           1  read in
    real space projection operators read in
  non local Contribution for L=           1  read in
    real space projection operators read in
    PAW grid and wavefunctions read in
 
   number of l-projection  operators is LMAX  =           4
   number of lm-projection operators is LMMAX =           8
 
 POTCAR:    PAW_PBE Na 08Apr2002                  
  local pseudopotential read in
  partial core-charges read in
  partial kinetic energy density read in
  atomic valenz-charges read in
  non local Contribution for L=           0  read in
    real space projection operators read in
  non local Contribution for L=           0  read in
    real space projection operators read in
  non local Contribution for L=           1  read in
    real space projection operators read in
    PAW grid and wavefunctions read in
 
   number of l-projection  operators is LMAX  =           3
   number of lm-projection operators is LMMAX =           5
 
 POTCAR:    PAW_PBE O 08Apr2002                   
  local pseudopotential read in
  partial core-charges read in
  partial kinetic energy density read in
  kinetic energy density of atom read in
  atomic valenz-charges read in
  non local Contribution for L=           0  read in
    real space projection operators read in
  non local Contribution for L=           0  read in
    real space projection operators read in
  non local Contribution for L=           1  read in
    real space projection operators read in
  non local Contribution for L=           1  read in
    real space projection operators read in
    PAW grid and wavefunctions read in
 
   number of l-projection  operators is LMAX  =           4
   number of lm-projection operators is LMMAX =           8
 
 Optimization of the real space projectors (new method)

 maximal supplied QI-value         = 19.84
 optimisation between [QCUT,QGAM] = [ 10.12, 20.44] = [ 28.68,116.96] Ry 
 Optimized for a Real-space Cutoff    1.23 Angstroem

   l    n(q)    QCUT    max X(q) W(low)/X(q) W(high)/X(q)  e(spline) 
   0      7    10.119   168.010    0.54E-04    0.25E-03    0.48E-07
   0      7    10.119   164.674    0.53E-04    0.25E-03    0.47E-07
   1      7    10.119    69.222    0.45E-03    0.63E-03    0.13E-06
   1      7    10.119    56.786    0.45E-03    0.62E-03    0.13E-06
 Optimization of the real space projectors (new method)

 maximal supplied QI-value         = 17.01
 optimisation between [QCUT,QGAM] = [ 10.20, 20.41] = [ 29.16,116.64] Ry 
 Optimized for a Real-space Cutoff    1.19 Angstroem

   l    n(q)    QCUT    max X(q) W(low)/X(q) W(high)/X(q)  e(spline) 
   0      7    10.205    45.123    0.22E-03    0.82E-03    0.11E-06
   0      7    10.205    12.364    0.17E-03    0.61E-03    0.75E-07
   1      7    10.205     8.302    0.37E-03    0.15E-03    0.27E-07
 Optimization of the real space projectors (new method)

 maximal supplied QI-value         = 24.76
 optimisation between [QCUT,QGAM] = [ 10.15, 20.30] = [ 28.85,115.39] Ry 
 Optimized for a Real-space Cutoff    1.38 Angstroem

   l    n(q)    QCUT    max X(q) W(low)/X(q) W(high)/X(q)  e(spline) 
   0      8    10.150    20.381    0.22E-03    0.32E-03    0.29E-06
   0      8    10.150    15.268    0.23E-03    0.35E-03    0.30E-06
   1      8    10.150     5.964    0.46E-03    0.53E-03    0.21E-06
   1      8    10.150     5.382    0.38E-03    0.45E-03    0.19E-06
  PAW_PBE Cl 06Sep2000                  :
 energy of atom  1       EATOM= -409.7259
 kinetic energy error for atom=    0.0089 (will be added to EATOM!!)
  PAW_PBE Na 08Apr2002                  :
 energy of atom  2       EATOM=   -5.1581
 kinetic energy error for atom=    0.0001 (will be added to EATOM!!)
  PAW_PBE O 08Apr2002                   :
 energy of atom  3       EATOM= -432.3788
 kinetic energy error for atom=    0.1156 (will be added to EATOM!!)
 
 
 POSCAR: Cl Na  O
  positions in cartesian coordinates
  No initial velocities read in
 exchange correlation table for  LEXCH =        8
   RHO(1)=    0.500       N(1)  =     2000
   RHO(2)=  100.500       N(2)  =     4000
 


--------------------------------------------------------------------------------------------------------


 ion  position               nearest neighbor table
   1  0.202  0.028  0.085-  81 3.15  33 3.15  66 3.15  90 3.15  67 3.17  34 3.17  89 3.17  77 3.17
                            92 3.18  78 3.18  36 3.21  70 3.21
   2  0.202  0.028  0.187-  93 3.15  69 3.15  35 3.15  83 3.15  92 3.16  78 3.16  73 3.17  38 3.17
                            95 3.18  79 3.18  70 3.18  36 3.18
   3  0.202  0.028  0.289-  96 3.15  85 3.15  72 3.15  37 3.15  38 3.16  73 3.16  76 3.17  40 3.17
                            95 3.17  79 3.17  98 3.19  80 3.19
   4  0.202  0.028  0.390-  76 3.11  40 3.11  98 3.14  80 3.14  87 3.15  99 3.15  39 3.15  75 3.15

   5  0.202  0.278  0.085-  33 3.15  42 3.15  90 3.15 102 3.15  41 3.17 101 3.17  34 3.17  43 3.17
                            36 3.18  46 3.18  44 3.21 104 3.21
   6  0.202  0.278  0.187-  93 3.15 105 3.15  45 3.15  35 3.15  46 3.15  36 3.15 107 3.17  47 3.17
                            49 3.18  38 3.18  44 3.19 104 3.19
   7  0.202  0.278  0.289-  96 3.15 108 3.15  37 3.15  48 3.15 107 3.16  47 3.16 110 3.17  50 3.17
                            49 3.17  38 3.17  52 3.19  40 3.19
   8  0.202  0.278  0.390- 110 3.12  50 3.12 130 3.14  40 3.14  52 3.14 111 3.15  99 3.15  51 3.15
                            39 3.15
   9  0.202  0.528  0.085- 114 3.15 102 3.15  54 3.15  42 3.15  43 3.17  55 3.17 113 3.17  53 3.17
                            56 3.18 116 3.18  46 3.21  58 3.21
  10  0.202  0.528  0.187-  57 3.15 105 3.15 117 3.15  45 3.15  56 3.16 116 3.16  49 3.17  61 3.17
                           119 3.18  59 3.18  46 3.18  58 3.18
  11  0.202  0.528  0.289- 108 3.15 120 3.15  60 3.15  48 3.15  61 3.16  49 3.16  52 3.17  64 3.17
                           119 3.17  59 3.17 122 3.19  62 3.19
  12  0.202  0.528  0.390- 154 3.00  64 3.11  52 3.11 122 3.14  62 3.14 111 3.15 123 3.15  63 3.15
                            51 3.15
  13  0.202  0.778  0.085-  54 3.15  66 3.15 114 3.15  81 3.15  65 3.17 125 3.17  55 3.17  67 3.17
                            58 3.18  70 3.18  68 3.21 126 3.21
  14  0.202  0.778  0.187-  57 3.15 117 3.15  83 3.15  69 3.15  70 3.15  58 3.15 127 3.17  71 3.17
                            73 3.18  61 3.18 126 3.19  68 3.19
  15  0.202  0.778  0.289-  60 3.15  72 3.15 120 3.15  85 3.15  71 3.16 127 3.16  74 3.17 128 3.17
                            61 3.17  73 3.17  64 3.19  76 3.19
  16  0.202  0.778  0.390- 128 3.12  74 3.12  64 3.14  76 3.14  87 3.15 123 3.15  75 3.15  63 3.15

  17  0.702  0.028  0.085-  42 3.15  33 3.15  81 3.15 114 3.15 115 3.17  82 3.17  41 3.17 125 3.17
                           126 3.18  44 3.18  84 3.21 118 3.21
  18  0.702  0.028  0.187-  83 3.15  45 3.15  35 3.15 117 3.15 126 3.16  44 3.16 121 3.17  86 3.17
                            47 3.18 127 3.18  84 3.18 118 3.18
  19  0.702  0.028  0.289-  48 3.15  37 3.15  85 3.15 120 3.15  86 3.16 121 3.16 124 3.17  88 3.17
                           127 3.17  47 3.17  50 3.19 128 3.19
  20  0.702  0.028  0.390- 124 3.11  88 3.11  50 3.14 128 3.14  39 3.15  51 3.15  87 3.15 123 3.15

  21  0.702  0.278  0.085-  81 3.15  90 3.15  42 3.15  54 3.15  89 3.17  53 3.17  82 3.17  91 3.17
                            84 3.18  94 3.18  92 3.21  56 3.21
  22  0.702  0.278  0.187-  83 3.15  45 3.15  57 3.15  93 3.15  94 3.15  84 3.15  59 3.17  95 3.17
                            97 3.18  86 3.18  56 3.19  92 3.19
  23  0.702  0.278  0.289-  85 3.15  96 3.15  48 3.15  60 3.15  95 3.16  59 3.16  98 3.17  62 3.17
                            86 3.17  97 3.17  88 3.19 100 3.19
  24  0.702  0.278  0.390-  62 3.12  98 3.12  88 3.14 100 3.14  63 3.15  51 3.15  99 3.15  87 3.15
                           166 3.32
  25  0.702  0.528  0.085- 102 3.15  54 3.15  90 3.15  66 3.15  91 3.17 103 3.17  65 3.17 101 3.17
                            68 3.18 104 3.18 106 3.21  94 3.21
  26  0.702  0.528  0.187-  69 3.15 105 3.15  93 3.15  57 3.15  68 3.16 104 3.16  97 3.17 109 3.17
                            71 3.18 107 3.18  94 3.18 106 3.18
  27  0.702  0.528  0.289-  60 3.15  72 3.15 108 3.15  96 3.15 109 3.16  97 3.16 100 3.17 112 3.17
                            71 3.17 107 3.17  74 3.19 110 3.19
  28  0.702  0.528  0.390- 100 3.11 112 3.11  74 3.14 110 3.14  63 3.15  75 3.15 111 3.15  99 3.15

  29  0.702  0.778  0.085- 102 3.15 114 3.15  66 3.15  33 3.15 113 3.17  77 3.17 103 3.17 115 3.17
                           106 3.18 118 3.18 116 3.21  78 3.21
  30  0.702  0.778  0.187-  35 3.15  69 3.15 117 3.15 105 3.15 118 3.15 106 3.15  79 3.17 119 3.17
                           121 3.18 109 3.18  78 3.19 116 3.19
  31  0.702  0.778  0.289- 108 3.15 120 3.15  72 3.15  37 3.15 119 3.16  79 3.16 122 3.17  80 3.17
                           109 3.17 121 3.17 112 3.19 124 3.19
  32  0.702  0.778  0.390-  80 3.12 122 3.12 112 3.14 124 3.14  39 3.15  75 3.15 123 3.15 111 3.15
                           214 3.36
  33  0.452  0.028  0.085- 237 2.24 238 2.26   5 3.15   1 3.15  17 3.15  29 3.15  78 3.17  44 3.17
                            36 3.17 118 3.17  41 3.19  77 3.19  34 3.19 115 3.19
  34  0.202  0.153  0.034- 257 2.23 237 2.23  89 3.15  77 3.15 101 3.15  41 3.15   1 3.17   5 3.17
                            90 3.19  33 3.19 139 3.50
  35  0.452  0.028  0.187- 239 2.26 238 2.26  30 3.15  18 3.15   2 3.15   6 3.15  79 3.17  47 3.17
                           118 3.17  36 3.17 121 3.17  38 3.17  44 3.18  78 3.18
  36  0.202  0.154  0.136- 258 2.23 238 2.23  78 3.15  92 3.15  44 3.15 104 3.15   6 3.15  93 3.17
                            90 3.17  35 3.17  33 3.17   5 3.18   2 3.18   1 3.21
  37  0.452  0.028  0.289- 239 2.26 240 2.26  19 3.15   3 3.15   7 3.15  31 3.15  79 3.17  47 3.17
                            38 3.17 121 3.17  80 3.17  50 3.17 124 3.18  40 3.18
  38  0.202  0.153  0.238- 259 2.23 239 2.23  95 3.15  79 3.15 107 3.15  47 3.15   3 3.16  96 3.17
                             2 3.17  37 3.17   7 3.17  93 3.17  35 3.17   6 3.18
  39  0.452  0.028  0.390- 240 2.22 124 3.14  40 3.14  80 3.14  50 3.14  32 3.15  20 3.15   4 3.15
                             8 3.15 214 3.52 130 3.91
  40  0.202  0.152  0.340- 260 2.23 240 2.23   4 3.11  39 3.14   8 3.14  99 3.14  80 3.15  98 3.15
                            50 3.15 110 3.15   3 3.17  96 3.18  37 3.18   7 3.19
  41  0.452  0.153  0.034- 237 2.23 241 2.23  82 3.15 115 3.15  43 3.15  34 3.15   5 3.17  17 3.17
                            33 3.19  42 3.19 151 3.26
  42  0.452  0.278  0.085- 241 2.24 242 2.26  17 3.15  21 3.15   5 3.15   9 3.15  56 3.17  44 3.17
                            84 3.17  46 3.17  43 3.19  82 3.19  41 3.19  53 3.19
  43  0.203  0.403  0.034- 241 2.23 261 2.23 163 3.02  53 3.15 113 3.15  41 3.15 101 3.15   9 3.17
                             5 3.17  42 3.19 102 3.19
  44  0.455  0.152  0.136- 238 2.23 242 2.23 118 3.15  84 3.15  36 3.15  46 3.15  18 3.16  33 3.17
                            42 3.17  35 3.18  45 3.18  17 3.18   6 3.19   5 3.21
  45  0.452  0.278  0.187- 242 2.26 243 2.26  18 3.15  22 3.15   6 3.15  10 3.15  84 3.17  46 3.17
                            49 3.17  86 3.17  47 3.17  59 3.17  56 3.18  44 3.18
  46  0.202  0.402  0.136- 242 2.23 262 2.23 116 3.15  56 3.15 104 3.15  44 3.15   6 3.15  45 3.17
                            42 3.17 105 3.17 102 3.17   5 3.18  10 3.18   9 3.21
  47  0.452  0.153  0.238- 239 2.23 243 2.23  86 3.15 121 3.15  49 3.15  38 3.15   7 3.16  37 3.17
                             6 3.17  35 3.17  19 3.17  48 3.17  45 3.17  18 3.18
  48  0.452  0.278  0.289- 243 2.26 244 2.26  19 3.15   7 3.15  23 3.15  11 3.15  86 3.17  49 3.17
                            47 3.17  59 3.17  50 3.17  62 3.17  88 3.18  52 3.18
  49  0.203  0.403  0.238- 243 2.23 263 2.23  59 3.15 119 3.15  47 3.15 107 3.15  11 3.16  48 3.17
                            10 3.17   7 3.17 108 3.17  45 3.17 105 3.17   6 3.18
  50  0.451  0.154  0.340- 240 2.23 244 2.23   8 3.12  20 3.14  39 3.14  51 3.14 124 3.15  88 3.15
                            40 3.15  52 3.15   7 3.17  48 3.17  37 3.17  19 3.19
  51  0.452  0.278  0.390- 244 2.22 142 3.04  88 3.14  52 3.14  50 3.14  62 3.14  20 3.15  24 3.15
                             8 3.15  12 3.15
  52  0.202  0.404  0.340- 244 2.23 264 2.23  12 3.11 111 3.14   8 3.14  51 3.14 122 3.15  62 3.15
                           110 3.15  50 3.15  11 3.17  48 3.18 108 3.18   7 3.19
  53  0.453  0.403  0.034- 245 2.23 241 2.23 187 3.11  43 3.15  55 3.15  82 3.15  91 3.15  21 3.17
                             9 3.17  54 3.19  42 3.19
  54  0.452  0.528  0.085- 245 2.24 246 2.26  13 3.15  25 3.15   9 3.15  21 3.15  68 3.17  56 3.17
                            58 3.17  94 3.17  65 3.19  53 3.19  55 3.19  91 3.19
  55  0.202  0.653  0.034- 265 2.23 245 2.23 113 3.15  53 3.15 125 3.15  65 3.15   9 3.17  13 3.17
                           114 3.19  54 3.19 199 3.23
  56  0.450  0.405  0.136- 246 2.23 242 2.23  58 3.15  46 3.15  94 3.15  84 3.15  10 3.16  54 3.17
                            42 3.17  45 3.18  57 3.18   9 3.18  22 3.19  21 3.21
  57  0.452  0.528  0.187- 247 2.26 246 2.26  10 3.15  14 3.15  26 3.15  22 3.15  59 3.17  71 3.17
                            94 3.17  58 3.17  61 3.17  97 3.17  68 3.18  56 3.18
  58  0.202  0.654  0.136- 266 2.23 246 2.23  56 3.15 116 3.15  68 3.15 126 3.15  14 3.15 117 3.17
                           114 3.17  57 3.17  54 3.17  13 3.18  10 3.18   9 3.21
  59  0.453  0.403  0.238- 247 2.23 243 2.23  49 3.15  61 3.15  86 3.15  97 3.15  23 3.16  60 3.17
                            57 3.17  22 3.17  11 3.17  48 3.17  45 3.17  10 3.18
  60  0.452  0.528  0.289- 247 2.26 248 2.26  15 3.15  27 3.15  11 3.15  23 3.15  59 3.17  71 3.17
                            61 3.17  97 3.17  74 3.17  62 3.17 100 3.18  64 3.18
  61  0.202  0.653  0.238- 267 2.23 247 2.23 119 3.15  59 3.15 127 3.15  71 3.15  11 3.16 120 3.17
                            15 3.17  10 3.17  60 3.17 117 3.17  57 3.17  14 3.18
  62  0.454  0.402  0.340- 248 2.23 244 2.23  24 3.12  12 3.14  63 3.14  51 3.14  64 3.15  52 3.15
                           100 3.15  88 3.15  23 3.17  48 3.17  60 3.17  11 3.19
  63  0.452  0.528  0.390- 248 2.22 100 3.14  64 3.14  62 3.14  74 3.14  24 3.15  28 3.15  12 3.15
                            16 3.15 178 3.25 154 4.13
  64  0.202  0.652  0.340- 268 2.23 248 2.23  12 3.11  63 3.14  16 3.14 123 3.14  62 3.15 122 3.15
                            74 3.15 128 3.15  11 3.17 120 3.18  60 3.18  15 3.19
  65  0.452  0.653  0.034- 245 2.23 249 2.23 103 3.15  91 3.15  67 3.15  55 3.15  13 3.17  25 3.17
                            54 3.19  66 3.19 223 3.63 199 3.92
  66  0.452  0.778  0.085- 249 2.24 250 2.26  13 3.15   1 3.15  25 3.15  29 3.15  78 3.17  68 3.17
                           106 3.17  70 3.17  67 3.19 103 3.19  65 3.19  77 3.19
  67  0.203  0.903  0.034- 249 2.23 253 2.23  77 3.15  89 3.15  65 3.15 125 3.15   1 3.17  13 3.17
                            66 3.19  81 3.19 139 4.02 223 4.20
  68  0.455  0.652  0.136- 246 2.23 250 2.23  94 3.15 106 3.15  58 3.15  70 3.15  26 3.16  54 3.17
                            66 3.17  57 3.18  25 3.18  69 3.18  14 3.19  13 3.21
  69  0.452  0.778  0.187- 250 2.26 251 2.26  30 3.15  26 3.15   2 3.15  14 3.15  70 3.17 106 3.17
                            73 3.17 109 3.17  79 3.17  71 3.17  78 3.18  68 3.18
  70  0.202  0.902  0.136- 250 2.23 254 2.23  92 3.15  78 3.15 126 3.15  68 3.15  14 3.15  69 3.17
                            66 3.17  83 3.17  81 3.17  13 3.18   2 3.18   1 3.21
  71  0.452  0.653  0.238- 247 2.23 251 2.23 109 3.15  97 3.15  73 3.15  61 3.15  15 3.16  60 3.17
                            57 3.17  14 3.17  27 3.17  72 3.17  69 3.17  26 3.18
  72  0.452  0.778  0.289- 251 2.26 252 2.26  27 3.15  31 3.15  15 3.15   3 3.15 109 3.17  73 3.17
                            71 3.17  79 3.17  80 3.17  74 3.17 112 3.18  76 3.18
  73  0.203  0.903  0.238- 251 2.23 255 2.23  79 3.15  95 3.15  71 3.15 127 3.15   3 3.16  72 3.17
                            15 3.17   2 3.17  85 3.17  69 3.17  83 3.17  14 3.18
  74  0.451  0.654  0.340- 248 2.23 252 2.23  16 3.12  28 3.14  63 3.14  75 3.14 100 3.15 112 3.15
                            64 3.15  76 3.15  15 3.17  72 3.17  60 3.17  27 3.19
  75  0.452  0.778  0.390- 252 2.22 112 3.14  76 3.14  74 3.14  80 3.14  28 3.15  32 3.15  16 3.15
                             4 3.15 190 3.74 214 4.03
  76  0.202  0.904  0.340- 252 2.23 256 2.23   4 3.11  87 3.14  16 3.14  75 3.14  98 3.15  80 3.15
                           128 3.15  74 3.15   3 3.17  72 3.18  85 3.18  15 3.19
  77  0.453  0.903  0.034- 237 2.23 249 2.23  67 3.15  34 3.15 103 3.15 115 3.15  29 3.17   1 3.17
                            33 3.19  66 3.19 139 3.80 223 3.99
  78  0.450  0.905  0.136- 238 2.23 250 2.23  36 3.15  70 3.15 118 3.15 106 3.15   2 3.16  33 3.17
                            66 3.17  35 3.18  69 3.18   1 3.18  30 3.19  29 3.21
  79  0.453  0.903  0.238- 239 2.23 251 2.23  73 3.15  38 3.15 109 3.15 121 3.15  31 3.16  37 3.17
                            30 3.17  35 3.17   3 3.17  72 3.17  69 3.17   2 3.18
  80  0.454  0.902  0.340- 240 2.23 252 2.23  32 3.12   4 3.14  39 3.14  75 3.14  40 3.15  76 3.15
                           124 3.15 112 3.15  31 3.17  72 3.17  37 3.17   3 3.19
  81  0.952  0.028  0.085- 253 2.24 254 2.26  21 3.15   1 3.15  17 3.15  13 3.15  92 3.17 126 3.17
                            84 3.17  70 3.17  89 3.19 125 3.19  82 3.19  67 3.19
  82  0.702  0.153  0.034- 241 2.23 253 2.23  41 3.15 125 3.15  53 3.15  89 3.15  17 3.17  21 3.17
                            42 3.19  81 3.19 175 3.34
  83  0.952  0.028  0.187- 255 2.26 254 2.26  18 3.15  22 3.15   2 3.15  14 3.15 127 3.17  95 3.17
                            70 3.17  84 3.17  86 3.17  73 3.17  92 3.18 126 3.18
  84  0.702  0.154  0.136- 242 2.23 254 2.23 126 3.15  44 3.15  92 3.15  56 3.15  22 3.15  45 3.17
                            42 3.17  83 3.17  81 3.17  21 3.18  18 3.18  17 3.21
  85  0.952  0.028  0.289- 255 2.26 256 2.26  23 3.15   3 3.15  19 3.15  15 3.15 127 3.17  95 3.17
                            86 3.17  73 3.17  98 3.17 128 3.17  76 3.18  88 3.18
  86  0.702  0.153  0.238- 243 2.23 255 2.23  47 3.15 127 3.15  59 3.15  95 3.15  19 3.16  48 3.17
                            23 3.17  18 3.17  85 3.17  45 3.17  83 3.17  22 3.18
  87  0.952  0.028  0.390- 256 2.22  76 3.14  88 3.14 128 3.14  98 3.14  16 3.15   4 3.15  20 3.15
                            24 3.15 190 3.67 166 4.06
  88  0.702  0.152  0.340- 244 2.23 256 2.23  20 3.11  87 3.14  24 3.14  51 3.14 128 3.15  50 3.15
                            98 3.15  62 3.15  19 3.17  48 3.18  85 3.18  23 3.19
  89  0.952  0.153  0.034- 253 2.23 257 2.23  34 3.15  67 3.15  91 3.15  82 3.15  21 3.17   1 3.17
                            81 3.19  90 3.19 139 3.74 175 4.00
  90  0.952  0.278  0.085- 257 2.24 258 2.26  21 3.15  25 3.15   1 3.15   5 3.15 104 3.17  92 3.17
                            36 3.17  94 3.17  91 3.19  34 3.19  89 3.19 101 3.19
  91  0.703  0.403  0.034- 257 2.23 245 2.23 101 3.15  65 3.15  89 3.15  53 3.15  25 3.17  21 3.17
                            90 3.19  54 3.19 211 3.53 187 3.82
  92  0.955  0.152  0.136- 254 2.23 258 2.23  70 3.15  36 3.15  84 3.15  94 3.15   2 3.16  81 3.17
                            90 3.17  83 3.18  93 3.18   1 3.18  22 3.19  21 3.21
  93  0.952  0.278  0.187- 258 2.26 259 2.26   6 3.15   2 3.15  26 3.15  22 3.15  94 3.17  36 3.17
                            38 3.17  97 3.17  95 3.17 107 3.17 104 3.18  92 3.18
  94  0.702  0.402  0.136- 258 2.23 246 2.23  68 3.15 104 3.15  56 3.15  92 3.15  22 3.15  93 3.17
                            90 3.17  57 3.17  54 3.17  21 3.18  26 3.18  25 3.21
  95  0.952  0.153  0.238- 255 2.23 259 2.23  38 3.15  73 3.15  97 3.15  86 3.15  23 3.16  85 3.17
                            83 3.17  22 3.17   3 3.17  96 3.17  93 3.17   2 3.18
  96  0.952  0.278  0.289- 259 2.26 260 2.26   7 3.15   3 3.15  23 3.15  27 3.15  38 3.17  97 3.17
                            95 3.17 107 3.17  98 3.17 110 3.17  40 3.18 100 3.18
  97  0.703  0.403  0.238- 259 2.23 247 2.23 107 3.15  71 3.15  95 3.15  59 3.15  27 3.16  96 3.17
                            23 3.17  26 3.17  60 3.17  93 3.17  57 3.17  22 3.18
  98  0.951  0.154  0.340- 256 2.23 260 2.23  24 3.12   4 3.14  87 3.14  99 3.14  76 3.15  40 3.15
                            88 3.15 100 3.15  23 3.17  96 3.17  85 3.17   3 3.19
  99  0.952  0.278  0.390- 260 2.22  40 3.14 100 3.14  98 3.14 110 3.14   4 3.15   8 3.15  24 3.15
                            28 3.15 166 3.53 130 3.84
 100  0.702  0.404  0.340- 260 2.23 248 2.23  28 3.11  63 3.14  24 3.14  99 3.14  74 3.15 110 3.15
                            62 3.15  98 3.15  27 3.17  96 3.18  60 3.18  23 3.19
 101  0.953  0.403  0.034- 261 2.23 257 2.23  91 3.15 103 3.15  34 3.15  43 3.15   5 3.17  25 3.17
                           102 3.19  90 3.19 211 3.28 163 4.18
 102  0.952  0.528  0.085- 261 2.24 262 2.26  29 3.15  25 3.15   9 3.15   5 3.15 104 3.17 116 3.17
                           106 3.17  46 3.17 113 3.19 101 3.19 103 3.19  43 3.19
 103  0.702  0.653  0.034- 249 2.23 261 2.23  65 3.15 101 3.15  77 3.15 113 3.15  25 3.17  29 3.17
                            66 3.19 102 3.19 223 3.38
 104  0.950  0.405  0.136- 262 2.23 258 2.23 106 3.15  94 3.15  46 3.15  36 3.15  26 3.16 102 3.17
                            90 3.17 105 3.18  93 3.18  25 3.18   6 3.19   5 3.21
 105  0.952  0.528  0.187- 263 2.26 262 2.26   6 3.15  10 3.15  26 3.15  30 3.15 107 3.17 119 3.17
                            46 3.17 106 3.17  49 3.17 109 3.17 116 3.18 104 3.18
 106  0.702  0.654  0.136- 250 2.23 262 2.23 104 3.15  68 3.15 116 3.15  78 3.15  30 3.15  69 3.17
                            66 3.17 105 3.17 102 3.17  29 3.18  26 3.18  25 3.21
 107  0.953  0.403  0.238- 263 2.23 259 2.23  97 3.15 109 3.15  38 3.15  49 3.15   7 3.16 108 3.17
                           105 3.17   6 3.17  27 3.17  96 3.17  93 3.17  26 3.18
 108  0.952  0.528  0.289- 263 2.26 264 2.26  31 3.15  11 3.15   7 3.15  27 3.15 107 3.17 119 3.17
                           109 3.17  49 3.17 122 3.17 110 3.17  52 3.18 112 3.18
 109  0.702  0.653  0.238- 251 2.23 263 2.23  71 3.15 107 3.15  79 3.15 119 3.15  27 3.16  72 3.17
                            31 3.17  26 3.17 108 3.17  69 3.17 105 3.17  30 3.18
 110  0.954  0.402  0.340- 264 2.23 260 2.23   8 3.12  28 3.14 111 3.14  99 3.14 112 3.15 100 3.15
                            52 3.15  40 3.15   7 3.17  96 3.17 108 3.17  27 3.19
 111  0.952  0.528  0.390- 264 2.22 202 3.07  52 3.14 112 3.14 110 3.14 122 3.14   8 3.15  12 3.15
                            28 3.15  32 3.15
 112  0.702  0.652  0.340- 252 2.23 264 2.23  28 3.11 111 3.14  32 3.14  75 3.14 110 3.15  74 3.15
                           122 3.15  80 3.15  27 3.17  72 3.18 108 3.18  31 3.19
 113  0.952  0.653  0.034- 261 2.23 265 2.23 235 3.14  55 3.15  43 3.15 115 3.15 103 3.15  29 3.17
                             9 3.17 102 3.19 114 3.19
 114  0.952  0.778  0.085- 265 2.24 266 2.26   9 3.15  13 3.15  29 3.15  17 3.15 126 3.17 116 3.17
                            58 3.17 118 3.17 115 3.19  55 3.19 113 3.19 125 3.19
 115  0.703  0.903  0.034- 265 2.23 237 2.23 125 3.15  41 3.15 113 3.15  77 3.15  17 3.17  29 3.17
                           114 3.19  33 3.19 151 3.57 235 3.77
 116  0.955  0.652  0.136- 262 2.23 266 2.23  46 3.15  58 3.15 106 3.15 118 3.15  10 3.16 102 3.17
                           114 3.17 105 3.18 117 3.18   9 3.18  30 3.19  29 3.21
 117  0.952  0.778  0.187- 266 2.26 267 2.26  30 3.15  10 3.15  18 3.15  14 3.15 118 3.17  58 3.17
                           121 3.17  61 3.17 119 3.17 127 3.17 126 3.18 116 3.18
 118  0.702  0.902  0.136- 266 2.23 238 2.23  44 3.15 126 3.15  78 3.15 116 3.15  30 3.15 117 3.17
                           114 3.17  35 3.17  33 3.17  29 3.18  18 3.18  17 3.21
 119  0.952  0.653  0.238- 263 2.23 267 2.23  61 3.15  49 3.15 121 3.15 109 3.15  31 3.16 108 3.17
                            30 3.17 105 3.17  11 3.17 120 3.17 117 3.17  10 3.18
 120  0.952  0.778  0.289- 267 2.26 268 2.26  31 3.15  11 3.15  19 3.15  15 3.15  61 3.17 121 3.17
                           119 3.17 127 3.17 122 3.17 128 3.17 124 3.18  64 3.18
 121  0.703  0.903  0.238- 267 2.23 239 2.23 127 3.15  47 3.15 119 3.15  79 3.15  19 3.16 120 3.17
                            31 3.17  18 3.17  37 3.17 117 3.17  35 3.17  30 3.18
 122  0.951  0.654  0.340- 264 2.23 268 2.23  32 3.12  12 3.14 111 3.14 123 3.14  52 3.15  64 3.15
                           112 3.15 124 3.15  31 3.17 120 3.17 108 3.17  11 3.19
 123  0.952  0.778  0.390- 268 2.22  64 3.14 124 3.14 122 3.14 128 3.14  12 3.15  16 3.15  32 3.15
                            20 3.15 226 3.28 154 4.07
 124  0.702  0.904  0.340- 268 2.23 240 2.23  20 3.11  39 3.14  32 3.14 123 3.14  50 3.15 128 3.15
                            80 3.15 122 3.15  19 3.17 120 3.18  37 3.18  31 3.19
 125  0.953  0.903  0.034- 253 2.23 265 2.23 115 3.15  82 3.15  55 3.15  67 3.15  13 3.17  17 3.17
                            81 3.19 114 3.19 175 3.66 199 3.85
 126  0.950  0.905  0.136- 254 2.23 266 2.23  84 3.15 118 3.15  70 3.15  58 3.15  18 3.16  81 3.17
                           114 3.17 117 3.18  83 3.18  17 3.18  14 3.19  13 3.21
 127  0.953  0.903  0.238- 255 2.23 267 2.23 121 3.15  86 3.15  61 3.15  73 3.15  15 3.16  85 3.17
                            83 3.17  14 3.17  19 3.17 120 3.17 117 3.17  18 3.18
 128  0.954  0.902  0.340- 256 2.23 268 2.23  16 3.12  20 3.14  87 3.14 123 3.14  88 3.15 124 3.15
                            76 3.15  64 3.15  15 3.17 120 3.17  85 3.17  19 3.19
 129  0.197  0.056  0.502- 132 3.56 192 3.56 190 3.58 216 3.58 168 3.58 214 3.59 130 3.59 166 3.59
                           131 4.09 165 4.18 141 4.18 213 4.21 201 4.21
 130  0.196  0.223  0.457-   8 3.14 153 3.58 201 3.58 141 3.59 129 3.59  99 3.84  39 3.91 132 3.97
                           142 4.19 166 4.20 202 4.21 214 4.22
 131  0.197  0.056  0.594- 218 3.63 170 3.63 134 3.64 194 3.64 168 3.65 216 3.65 192 3.65 132 3.65
                           129 4.09 133 4.16 143 4.17 167 4.17 215 4.21 203 4.21
 132  0.197  0.222  0.546- 141 3.55 201 3.55 129 3.56 153 3.56 143 3.65 203 3.65 131 3.65 155 3.65
                           130 3.97 144 4.18 168 4.19
 133  0.196  0.056  0.688- 134 3.61 194 3.61 170 3.62 218 3.62 196 3.62 136 3.62 220 3.64 172 3.64
                           135 4.13 131 4.16 145 4.18 169 4.18
 134  0.196  0.223  0.642- 205 3.60 145 3.60 157 3.61 133 3.61 203 3.63 143 3.63 155 3.64 131 3.64
                           136 4.13 146 4.18 170 4.18 206 4.22 218 4.22
 135  0.196  0.056  0.781- 172 3.60 220 3.61 196 3.61 136 3.61 174 3.63 222 3.63 198 3.64 138 3.64
                           133 4.13 147 4.18 171 4.18 207 4.21
 136  0.196  0.223  0.735- 135 3.61 159 3.61 147 3.61 207 3.62 133 3.62 157 3.62 205 3.63 145 3.64
                           134 4.13 138 4.16 148 4.18 172 4.18
 137  0.196  0.056  0.877- 224 3.55 176 3.55 140 3.56 200 3.56 174 3.65 198 3.65 222 3.65 138 3.65
                           139 3.96 149 4.18 173 4.19
 138  0.196  0.223  0.829- 147 3.63 207 3.63 159 3.64 209 3.64 149 3.64 135 3.64 161 3.65 137 3.65
                           140 4.09 136 4.16 150 4.17 174 4.18 210 4.21 222 4.21
 139  0.196  0.056  0.966-  34 3.50 140 3.58 176 3.58 200 3.58 224 3.58  89 3.74  77 3.80 137 3.96
                            67 4.02 175 4.20 151 4.20 211 4.21 223 4.21
 140  0.196  0.223  0.921- 137 3.56 161 3.56 209 3.57 139 3.58 149 3.58 163 3.58 211 3.59 151 3.59
                           138 4.09 152 4.18 176 4.18 212 4.21 224 4.21
 141  0.529  0.055  0.502- 132 3.55 144 3.56 228 3.57 216 3.57 214 3.58 226 3.58 130 3.59 142 3.60
                           143 4.09 225 4.17 129 4.18 153 4.21
 142  0.530  0.222  0.457-  51 3.04 177 3.58 153 3.58 165 3.59 141 3.60 144 3.99 226 4.18 130 4.19
                           166 4.20 154 4.22
 143  0.529  0.055  0.594- 146 3.62 218 3.62 134 3.63 230 3.63 144 3.64 228 3.64 216 3.65 132 3.65
                           141 4.09 145 4.13 131 4.17 227 4.18 155 4.21
 144  0.531  0.221  0.547- 141 3.56 165 3.57 177 3.57 153 3.58 143 3.64 155 3.65 179 3.65 167 3.65
                           142 3.99 228 4.15 132 4.18 146 4.19
 145  0.530  0.054  0.688- 134 3.60 218 3.61 230 3.61 146 3.61 136 3.64 232 3.64 148 3.64 220 3.64
                           143 4.13 229 4.15 147 4.16 133 4.18
 146  0.530  0.221  0.641- 181 3.61 169 3.61 145 3.61 157 3.62 143 3.62 179 3.63 155 3.63 167 3.64
                           148 4.16 230 4.16 134 4.18 144 4.19
 147  0.529  0.055  0.781- 148 3.60 232 3.61 136 3.61 220 3.62 150 3.62 222 3.63 138 3.63 234 3.64
                           145 4.16 231 4.17 135 4.18 149 4.19 159 4.21
 148  0.530  0.221  0.735- 159 3.60 147 3.60 171 3.61 183 3.61 169 3.63 157 3.64 145 3.64 181 3.64
                           150 4.13 232 4.15 146 4.16 136 4.18
 149  0.530  0.054  0.876- 236 3.56 224 3.56 152 3.57 140 3.58 138 3.64 222 3.64 150 3.65 234 3.65
                           151 3.99 233 4.15 137 4.18 147 4.19
 150  0.529  0.221  0.828- 147 3.62 183 3.62 171 3.63 159 3.63 149 3.65 173 3.65 185 3.65 161 3.65
                           152 4.09 148 4.13 138 4.17 234 4.18 162 4.22
 151  0.531  0.055  0.966-  41 3.26 115 3.57 152 3.58 236 3.58 140 3.59 224 3.60 149 3.99 235 4.18
                           139 4.20 175 4.20 163 4.21
 152  0.529  0.221  0.921- 161 3.55 185 3.56 173 3.56 149 3.57 151 3.58 163 3.59 175 3.59 187 3.60
                           150 4.09 236 4.17 140 4.18 164 4.21
 153  0.197  0.389  0.502- 132 3.56 156 3.56 144 3.58 130 3.58 204 3.58 142 3.58 202 3.59 154 3.59
                           155 4.09 201 4.18 177 4.18 141 4.21 225 4.21
 154  0.196  0.556  0.457-  12 3.00 189 3.58 225 3.58 177 3.59 153 3.59 156 3.97 123 4.07  63 4.13
                           178 4.20 202 4.20 226 4.20 142 4.22
 155  0.196  0.389  0.594- 146 3.63 206 3.63 134 3.64 158 3.64 204 3.64 144 3.65 132 3.65 156 3.66
                           153 4.09 157 4.16 203 4.17 179 4.18 227 4.21 143 4.21
 156  0.197  0.556  0.546- 177 3.55 225 3.55 189 3.56 153 3.56 179 3.65 227 3.65 191 3.65 155 3.66
                           154 3.97 180 4.19 204 4.19
 157  0.196  0.389  0.688- 158 3.61 134 3.61 206 3.62 146 3.62 136 3.62 160 3.63 148 3.64 208 3.64
                           159 4.13 155 4.16 205 4.18 181 4.18
 158  0.196  0.556  0.642- 181 3.60 229 3.60 193 3.61 157 3.61 227 3.63 179 3.63 191 3.64 155 3.64
                           160 4.13 206 4.18 182 4.19 230 4.22
 159  0.196  0.389  0.781- 208 3.60 148 3.60 136 3.61 160 3.61 210 3.63 150 3.63 138 3.64 162 3.64
                           157 4.13 183 4.18 207 4.19 231 4.21 147 4.21
 160  0.196  0.556  0.735- 195 3.61 159 3.61 183 3.62 231 3.62 193 3.62 157 3.63 229 3.63 181 3.64
                           158 4.13 162 4.16 184 4.18 208 4.18
 161  0.196  0.389  0.877- 152 3.55 212 3.55 164 3.56 140 3.56 138 3.65 210 3.65 162 3.65 150 3.65
                           163 3.96 209 4.19 185 4.19
 162  0.196  0.556  0.829- 231 3.63 183 3.63 233 3.64 159 3.64 195 3.64 185 3.64 197 3.65 161 3.65
                           164 4.09 160 4.16 186 4.17 210 4.18 234 4.20 150 4.22
 163  0.196  0.389  0.966-  43 3.02 164 3.58 140 3.58 212 3.58 152 3.59 161 3.96 101 4.18 211 4.20
                           187 4.20 235 4.21 151 4.21
 164  0.196  0.556  0.921- 161 3.56 197 3.56 185 3.58 233 3.58 199 3.58 163 3.58 187 3.59 235 3.59
                           162 4.09 188 4.18 212 4.18 152 4.21 236 4.22
 165  0.864  0.057  0.502- 192 3.55 144 3.57 168 3.57 228 3.57 166 3.57 190 3.58 142 3.59 226 3.60
                           167 4.09 177 4.17 129 4.18 189 4.21
 166  0.862  0.224  0.457-  24 3.32  99 3.53 165 3.57 177 3.58 129 3.59 201 3.60 168 3.99  87 4.06
                           178 4.17 130 4.20 142 4.20 190 4.20
 167  0.864  0.056  0.594- 230 3.62 170 3.63 194 3.63 146 3.64 228 3.64 168 3.65 144 3.65 192 3.65
                           165 4.09 169 4.13 131 4.17 179 4.18 191 4.21
 168  0.862  0.224  0.547- 177 3.57 165 3.57 201 3.57 129 3.58 203 3.64 167 3.65 131 3.65 179 3.65
                           166 3.99 180 4.15 132 4.19 170 4.19
 169  0.862  0.058  0.688- 194 3.60 170 3.61 146 3.61 230 3.61 148 3.63 196 3.64 172 3.64 232 3.64
                           167 4.13 181 4.15 171 4.16 133 4.18
 170  0.863  0.224  0.641- 169 3.61 181 3.61 205 3.62 133 3.62 167 3.63 203 3.63 131 3.63 179 3.63
                           172 4.16 182 4.17 134 4.18 168 4.19 194 4.22
 171  0.863  0.057  0.782- 232 3.61 148 3.61 172 3.62 196 3.62 234 3.62 174 3.63 150 3.63 198 3.63
                           169 4.16 183 4.17 135 4.18 173 4.19 195 4.21
 172  0.862  0.225  0.735- 207 3.60 135 3.60 183 3.61 171 3.62 181 3.64 133 3.64 169 3.64 205 3.64
                           174 4.13 184 4.15 170 4.16 136 4.18
 173  0.862  0.058  0.876- 152 3.56 176 3.57 236 3.57 200 3.58 198 3.64 174 3.64 234 3.64 150 3.65
                           175 3.99 185 4.15 137 4.19 171 4.19
 174  0.864  0.223  0.828- 207 3.62 135 3.63 171 3.63 183 3.64 173 3.64 209 3.64 137 3.65 185 3.65
                           176 4.09 172 4.13 138 4.18 186 4.18 198 4.21
 175  0.863  0.057  0.966-  82 3.34 236 3.57 200 3.59 152 3.59 176 3.60 125 3.66 173 3.99  89 4.00
                           187 4.18 139 4.20 151 4.20 199 4.21
 176  0.863  0.224  0.921- 137 3.55 185 3.56 173 3.57 209 3.57 211 3.58 139 3.58 187 3.58 175 3.60
                           174 4.09 188 4.17 140 4.18 200 4.21
 177  0.529  0.388  0.502- 156 3.55 180 3.56 168 3.57 144 3.57 142 3.58 166 3.58 154 3.59 178 3.60
                           179 4.09 165 4.17 153 4.18 189 4.21
 178  0.531  0.555  0.457-  63 3.25 213 3.58 201 3.58 189 3.59 177 3.60 180 3.99 166 4.17 154 4.20
                           202 4.20
 179  0.529  0.388  0.594- 146 3.63 158 3.63 182 3.63 170 3.63 180 3.64 168 3.65 144 3.65 156 3.65
                           177 4.09 181 4.13 155 4.18 167 4.18 191 4.21
 180  0.531  0.554  0.547- 201 3.56 177 3.56 213 3.57 189 3.58 179 3.64 203 3.65 191 3.65 215 3.65
                           178 3.99 168 4.15 156 4.19 182 4.20
 181  0.530  0.387  0.688- 158 3.60 146 3.61 170 3.61 182 3.62 172 3.64 160 3.64 184 3.64 148 3.64
                           179 4.13 169 4.15 183 4.16 157 4.18
 182  0.530  0.555  0.641- 217 3.60 205 3.60 181 3.62 215 3.62 193 3.62 179 3.63 191 3.63 203 3.63
                           184 4.16 170 4.17 158 4.19 180 4.20 194 4.21
 183  0.529  0.388  0.782- 184 3.61 172 3.61 148 3.61 160 3.62 150 3.62 186 3.62 162 3.63 174 3.64
                           181 4.16 171 4.17 159 4.18 185 4.19
 184  0.530  0.554  0.735- 195 3.60 183 3.61 207 3.61 219 3.62 205 3.63 193 3.64 181 3.64 217 3.64
                           186 4.13 172 4.15 182 4.16 160 4.18
 185  0.530  0.387  0.876- 152 3.56 176 3.56 188 3.57 164 3.58 186 3.64 162 3.64 174 3.65 150 3.65
                           187 3.99 173 4.15 161 4.19 183 4.19
 186  0.529  0.555  0.828- 183 3.62 219 3.63 207 3.63 195 3.63 185 3.64 221 3.65 209 3.65 197 3.65
                           188 4.09 184 4.13 162 4.17 174 4.18 198 4.22
 187  0.530  0.388  0.966-  53 3.11 188 3.57 176 3.58 164 3.59 152 3.60  91 3.82 185 3.99 175 4.18
                           163 4.20 211 4.20 199 4.21
 188  0.529  0.555  0.921- 197 3.55 209 3.57 221 3.57 185 3.57 187 3.57 199 3.58 211 3.59 223 3.60
                           186 4.09 176 4.17 164 4.18 200 4.21
 189  0.196  0.723  0.502- 192 3.56 156 3.56 154 3.58 180 3.58 228 3.58 190 3.59 178 3.59 226 3.59
                           191 4.09 225 4.18 213 4.18 177 4.21 165 4.21
 190  0.196  0.890  0.457- 165 3.58 129 3.58 189 3.59 213 3.59  87 3.67  75 3.74 192 3.97 214 4.20
                           226 4.20 166 4.20
 191  0.197  0.722  0.594- 182 3.63 230 3.63 158 3.64 194 3.64 180 3.65 228 3.65 192 3.65 156 3.65
                           189 4.09 193 4.16 227 4.17 215 4.17 179 4.21 167 4.21
 192  0.197  0.889  0.546- 213 3.55 165 3.55 189 3.56 129 3.56 215 3.65 167 3.65 191 3.65 131 3.65
                           190 3.97 216 4.19 228 4.19
 193  0.196  0.723  0.688- 194 3.61 158 3.61 230 3.62 160 3.62 182 3.62 196 3.63 232 3.64 184 3.64
                           195 4.13 191 4.16 229 4.18 217 4.18
 194  0.197  0.889  0.642- 217 3.60 169 3.60 193 3.61 133 3.61 167 3.63 215 3.63 191 3.64 131 3.64
                           196 4.13 230 4.18 218 4.18 182 4.21 170 4.22
 195  0.196  0.723  0.781- 232 3.60 184 3.60 196 3.61 160 3.61 234 3.63 186 3.63 198 3.64 162 3.64
                           193 4.13 219 4.18 231 4.19 171 4.21
 196  0.196  0.889  0.735- 135 3.61 195 3.61 219 3.62 171 3.62 133 3.62 193 3.63 217 3.63 169 3.64
                           194 4.13 198 4.16 220 4.18 232 4.19
 197  0.197  0.723  0.877- 188 3.55 236 3.56 200 3.56 164 3.56 186 3.65 162 3.65 234 3.65 198 3.65
                           199 3.96 221 4.18 233 4.19
 198  0.196  0.889  0.829- 219 3.63 171 3.63 173 3.64 195 3.64 135 3.64 221 3.64 137 3.65 197 3.65
                           200 4.09 196 4.16 222 4.17 234 4.18 174 4.21 186 4.22
 199  0.196  0.723  0.966-  55 3.23 164 3.58 200 3.58 236 3.58 188 3.58 125 3.85  65 3.92 197 3.96
                           235 4.19 223 4.20 175 4.21 187 4.21
 200  0.196  0.889  0.921- 197 3.56 137 3.56 221 3.58 173 3.58 199 3.58 139 3.58 175 3.59 223 3.59
                           198 4.09 224 4.18 236 4.18 188 4.21 176 4.21
 201  0.864  0.390  0.502- 132 3.55 180 3.56 168 3.57 204 3.57 202 3.58 130 3.58 178 3.58 166 3.60
                           203 4.09 213 4.18 153 4.18 129 4.21
 202  0.862  0.557  0.457- 111 3.07 201 3.58 213 3.58 153 3.59 225 3.60 204 3.99 214 4.17 154 4.20
                           178 4.20 130 4.21
 203  0.864  0.390  0.594- 206 3.63 134 3.63 170 3.63 182 3.63 204 3.64 168 3.64 180 3.65 132 3.65
                           201 4.09 205 4.14 155 4.17 215 4.18 131 4.21
 204  0.862  0.558  0.547- 213 3.57 225 3.57 201 3.57 153 3.58 227 3.64 203 3.64 155 3.64 215 3.64
                           202 3.99 216 4.15 156 4.19 206 4.19
 205  0.863  0.391  0.688- 134 3.60 182 3.60 206 3.61 170 3.62 136 3.63 184 3.63 208 3.64 172 3.64
                           203 4.14 217 4.15 207 4.16 157 4.18
 206  0.863  0.557  0.641- 205 3.61 217 3.61 229 3.61 157 3.62 203 3.63 227 3.63 155 3.63 215 3.63
                           208 4.16 218 4.16 158 4.18 204 4.19 134 4.22
 207  0.863  0.390  0.782- 172 3.60 184 3.61 174 3.62 136 3.62 208 3.62 210 3.63 138 3.63 186 3.63
                           205 4.16 219 4.17 159 4.19 209 4.19 135 4.21
 208  0.862  0.558  0.735- 159 3.60 231 3.60 219 3.61 207 3.62 217 3.64 157 3.64 205 3.64 229 3.64
                           210 4.13 220 4.15 206 4.16 160 4.18
 209  0.863  0.391  0.876- 212 3.57 188 3.57 176 3.57 140 3.57 138 3.64 210 3.64 174 3.64 186 3.65
                           211 3.99 221 4.16 161 4.19 207 4.19
 210  0.864  0.557  0.828- 231 3.62 159 3.63 207 3.63 219 3.64 209 3.64 233 3.65 221 3.65 161 3.65
                           212 4.09 208 4.13 162 4.18 222 4.18 138 4.21
 211  0.862  0.390  0.966- 101 3.28  91 3.53 176 3.58 188 3.59 140 3.59 212 3.60 209 3.99 223 4.18
                           163 4.20 187 4.20 139 4.21
 212  0.863  0.557  0.921- 161 3.55 209 3.57 221 3.57 233 3.57 235 3.58 163 3.58 223 3.58 211 3.60
                           210 4.09 224 4.17 164 4.18 140 4.21
 213  0.529  0.722  0.502- 192 3.55 216 3.56 204 3.57 180 3.57 178 3.58 202 3.58 190 3.59 214 3.60
                           215 4.09 201 4.18 189 4.18 129 4.21
 214  0.530  0.888  0.457-  32 3.36  39 3.52 141 3.58 129 3.59 225 3.59 213 3.60 216 3.99  75 4.03
                           202 4.17 190 4.20 226 4.20 130 4.22
 215  0.529  0.722  0.594- 182 3.62 218 3.63 194 3.63 206 3.63 216 3.64 204 3.64 180 3.65 192 3.65
                           213 4.09 217 4.14 191 4.17 203 4.18 131 4.21
 216  0.531  0.887  0.547- 213 3.56 225 3.56 141 3.57 129 3.58 215 3.64 131 3.65 143 3.65 227 3.65
                           214 3.99 204 4.15 192 4.19 218 4.20
 217  0.530  0.721  0.688- 194 3.60 182 3.60 206 3.61 218 3.62 196 3.63 208 3.64 220 3.64 184 3.64
                           215 4.14 205 4.15 219 4.16 193 4.18
 218  0.530  0.888  0.641- 145 3.61 229 3.61 217 3.62 133 3.62 143 3.62 215 3.63 131 3.63 227 3.63
                           220 4.16 206 4.16 194 4.18 216 4.20 134 4.22
 219  0.529  0.721  0.782- 220 3.61 208 3.61 196 3.62 184 3.62 222 3.62 186 3.63 198 3.63 210 3.64
                           217 4.16 207 4.17 195 4.18 221 4.19
 220  0.530  0.887  0.735- 135 3.61 219 3.61 231 3.61 147 3.62 229 3.63 133 3.64 217 3.64 145 3.64
                           222 4.13 208 4.15 218 4.16 196 4.18
 221  0.530  0.721  0.876- 212 3.57 188 3.57 224 3.57 200 3.58 198 3.64 222 3.64 186 3.65 210 3.65
                           223 3.99 209 4.16 197 4.18 219 4.19
 222  0.528  0.888  0.828- 219 3.62 147 3.63 135 3.63 231 3.63 221 3.64 149 3.64 233 3.65 137 3.65
                           224 4.09 220 4.13 198 4.17 210 4.18 138 4.21
 223  0.530  0.722  0.966- 103 3.38 224 3.58 212 3.58 200 3.59 188 3.60  65 3.63  77 3.99 221 3.99
                           211 4.18 199 4.20  67 4.20 235 4.20 139 4.21
 224  0.529  0.888  0.921- 137 3.55 149 3.56 233 3.56 221 3.57 223 3.58 139 3.58 235 3.59 151 3.60
                           222 4.09 212 4.17 200 4.18 140 4.21
 225  0.864  0.724  0.502- 156 3.55 216 3.56 228 3.57 204 3.57 226 3.57 154 3.58 214 3.59 202 3.60
                           227 4.09 141 4.17 189 4.18 153 4.21
 226  0.862  0.890  0.457- 123 3.28 225 3.57 141 3.58 189 3.59 165 3.60 228 3.99 142 4.18 190 4.20
                           214 4.20 154 4.20
 227  0.864  0.723  0.594- 230 3.62 206 3.63 158 3.63 218 3.63 228 3.64 204 3.64 216 3.65 156 3.65
                           225 4.09 229 4.13 191 4.17 143 4.18 155 4.21
 228  0.862  0.891  0.547- 141 3.57 225 3.57 165 3.57 189 3.58 227 3.64 167 3.64 143 3.64 191 3.65
                           226 3.99 144 4.15 192 4.19 230 4.19
 229  0.863  0.725  0.688- 158 3.60 230 3.61 218 3.61 206 3.61 220 3.63 160 3.63 232 3.64 208 3.64
                           227 4.13 145 4.15 231 4.16 193 4.18
 230  0.863  0.891  0.641- 229 3.61 145 3.61 169 3.61 193 3.62 227 3.62 167 3.62 191 3.63 143 3.63
                           232 4.16 146 4.16 194 4.18 228 4.19 158 4.22
 231  0.863  0.724  0.782- 208 3.60 220 3.61 232 3.62 160 3.62 210 3.62 234 3.63 162 3.63 222 3.63
                           229 4.16 147 4.17 195 4.19 233 4.19 159 4.21
 232  0.862  0.891  0.735- 195 3.60 171 3.61 147 3.61 231 3.62 145 3.64 193 3.64 229 3.64 169 3.64
                           234 4.13 148 4.15 230 4.16 196 4.19
 233  0.862  0.724  0.876- 224 3.56 236 3.57 212 3.57 164 3.58 162 3.64 234 3.64 210 3.65 222 3.65
                           235 3.99 149 4.15 197 4.19 231 4.19
 234  0.864  0.890  0.828- 171 3.62 231 3.63 195 3.63 147 3.64 233 3.64 173 3.64 149 3.65 197 3.65
                           236 4.09 232 4.13 150 4.18 198 4.18 162 4.20
 235  0.863  0.723  0.966- 113 3.14 212 3.58 164 3.59 224 3.59 236 3.60 115 3.77 233 3.99 151 4.18
                           199 4.19 223 4.20 163 4.21
 236  0.863  0.891  0.921- 197 3.56 149 3.56 233 3.57 173 3.57 175 3.57 151 3.58 199 3.58 235 3.60
                           234 4.09 152 4.17 200 4.18 164 4.22
 237  0.452  0.028  0.035-  41 2.23  77 2.23 115 2.23  34 2.23  33 2.24
 238  0.452  0.028  0.136-  78 2.23  44 2.23 118 2.23  36 2.23  35 2.26  33 2.26
 239  0.452  0.028  0.238-  79 2.23  47 2.23 121 2.23  38 2.23  37 2.26  35 2.26
 240  0.452  0.028  0.340-  39 2.22  80 2.23  50 2.23 124 2.23  40 2.23  37 2.26
 241  0.452  0.278  0.035-  82 2.23  43 2.23  53 2.23  41 2.23  42 2.24
 242  0.452  0.278  0.136-  84 2.23  46 2.23  56 2.23  44 2.23  45 2.26  42 2.26
 243  0.452  0.278  0.238-  49 2.23  86 2.23  47 2.23  59 2.23  48 2.26  45 2.26
 244  0.452  0.278  0.340-  51 2.22  88 2.23  52 2.23  50 2.23  62 2.23  48 2.26
 245  0.452  0.528  0.035-  65 2.23  53 2.23  91 2.23  55 2.23  54 2.24
 246  0.452  0.528  0.136-  56 2.23  68 2.23  94 2.23  58 2.23  57 2.26  54 2.26
 247  0.452  0.528  0.238-  59 2.23  71 2.23  61 2.23  97 2.23  60 2.26  57 2.26
 248  0.452  0.528  0.340-  63 2.22  62 2.23  74 2.23 100 2.23  64 2.23  60 2.26
 249  0.452  0.778  0.035- 103 2.23  67 2.23  77 2.23  65 2.23  66 2.24
 250  0.452  0.778  0.136- 106 2.23  70 2.23  78 2.23  68 2.23  69 2.26  66 2.26
 251  0.452  0.778  0.238-  73 2.23 109 2.23  71 2.23  79 2.23  72 2.26  69 2.26
 252  0.452  0.778  0.340-  75 2.22 112 2.23  76 2.23  74 2.23  80 2.23  72 2.26
 253  0.952  0.028  0.035-  89 2.23 125 2.23  67 2.23  82 2.23  81 2.24
 254  0.952  0.028  0.136- 126 2.23  92 2.23  70 2.23  84 2.23  83 2.26  81 2.26
 255  0.952  0.028  0.238- 127 2.23  95 2.23  86 2.23  73 2.23  85 2.26  83 2.26
 256  0.952  0.028  0.340-  87 2.22 128 2.23  98 2.23  76 2.23  88 2.23  85 2.26
 257  0.952  0.278  0.035-  34 2.23  91 2.23 101 2.23  89 2.23  90 2.24
 258  0.952  0.278  0.136-  36 2.23  94 2.23 104 2.23  92 2.23  93 2.26  90 2.26
 259  0.952  0.278  0.238-  97 2.23  38 2.23  95 2.23 107 2.23  96 2.26  93 2.26
 260  0.952  0.278  0.340-  99 2.22  40 2.23 100 2.23  98 2.23 110 2.23  96 2.26
 261  0.952  0.528  0.035- 113 2.23 101 2.23  43 2.23 103 2.23 102 2.24
 262  0.952  0.528  0.136- 104 2.23 116 2.23  46 2.23 106 2.23 105 2.26 102 2.26
 263  0.952  0.528  0.238- 107 2.23 119 2.23 109 2.23  49 2.23 108 2.26 105 2.26
 264  0.952  0.528  0.340- 111 2.22 110 2.23 122 2.23  52 2.23 112 2.23 108 2.26
 265  0.952  0.778  0.035-  55 2.23 115 2.23 125 2.23 113 2.23 114 2.24
 266  0.952  0.778  0.136-  58 2.23 118 2.23 126 2.23 116 2.23 117 2.26 114 2.26
 267  0.952  0.778  0.238-  61 2.23 121 2.23 119 2.23 127 2.23 120 2.26 117 2.26
 268  0.952  0.778  0.340- 123 2.22  64 2.23 124 2.23 122 2.23 128 2.23 120 2.26
 
  LATTYP: Found a simple tetragonal cell.
 ALAT       =    12.5968630722
 C/A-ratio  =     3.5191510142
  
  Lattice vectors:
  
 A1 = (   8.9073273000,   8.9073273000,   0.0000000000)
 A2 = (  -8.9073273000,   8.9073273000,   0.0000000000)
 A3 = (   0.0000000000,   0.0000000000,  44.3302634558)


Analysis of symmetry for initial positions (statically):
=====================================================================
 Subroutine PRICEL returns:
 Original cell was already a primitive cell.
 

 Routine SETGRP: Setting up the symmetry group for a 
 simple tetragonal supercell.


 Subroutine GETGRP returns: Found  1 space group operations
 (whereof  1 operations were pure point group operations)
 out of a pool of 16 trial point group operations.


The static configuration has the point symmetry C_1 .


Analysis of symmetry for dynamics (positions and initial velocities):
=====================================================================
 Subroutine PRICEL returns:
 Original cell was already a primitive cell.
 

 Routine SETGRP: Setting up the symmetry group for a 
 simple tetragonal supercell.


 Subroutine GETGRP returns: Found  1 space group operations
 (whereof  1 operations were pure point group operations)
 out of a pool of 16 trial point group operations.


The dynamic configuration has the point symmetry C_1 .


 Subroutine INISYM returns: Found  1 space group operations
 (whereof  1 operations are pure point group operations),
 and found     1 'primitive' translations


----------------------------------------------------------------------------------------

                                     Primitive cell                                     

  volume of cell :    7034.3687

  direct lattice vectors                    reciprocal lattice vectors
    -8.907327300  8.907327300  0.000000000     0.000000000  0.112267122  0.000000000
   -17.814654600  0.000000000  0.000000000    -0.056133561 -0.056133561  0.000000000
     0.000000000  0.000000000 44.330263456     0.000000000  0.000000000  0.022557953

  length of vectors
    12.596863072 17.814654600 44.330263456     0.112267122  0.079384843  0.022557953

  position of ions in fractional coordinates (direct lattice)
     0.202373700  0.028196525  0.084697886
     0.202376660  0.028194065  0.187274567
     0.202377790  0.028194475  0.289080272
     0.202377380  0.028194875  0.389777623
     0.202396900  0.278175315  0.084727025
     0.202377280  0.278194845  0.187275631
     0.202377380  0.278195045  0.289056568
     0.202377460  0.278194855  0.389842879
     0.202375350  0.528194235  0.084698459
     0.202377360  0.528194555  0.187274585
     0.202377780  0.528194605  0.289080222
     0.202377370  0.528194915  0.389777642
     0.202396830  0.778174325  0.084727037
     0.202376610  0.778196045  0.187275401
     0.202383840  0.778189825  0.289051345
     0.202377380  0.778194895  0.389842836
     0.702375510  0.028194395  0.084698347
     0.702377630  0.028194735  0.187274542
     0.702378010  0.028194555  0.289080278
     0.702377340  0.028194885  0.389777623
     0.702396680  0.278174415  0.084727056
     0.702376640  0.278196025  0.187275451
     0.702383730  0.278189875  0.289051338
     0.702377360  0.278194925  0.389842842
     0.702374120  0.528196415  0.084698017
     0.702377000  0.528194175  0.187274623
     0.702377790  0.528194645  0.289080228
     0.702377250  0.528194925  0.389777629
     0.702397600  0.778174635  0.084727081
     0.702375930  0.778196725  0.187275843
     0.702383850  0.778189755  0.289051376
     0.702377320  0.778194975  0.389842842
     0.452374530  0.028193265  0.085454722
     0.202161020  0.153169125  0.033881839
     0.452382760  0.028190765  0.187349580
     0.202356210  0.154439165  0.136409669
     0.452378620  0.028194345  0.289140560
     0.202186830  0.152980575  0.238287168
     0.452380200  0.028192665  0.390177076
     0.202353940  0.152304555  0.340277722
     0.452241320  0.153168075  0.033846107
     0.452383770  0.278189525  0.085481077
     0.202631550  0.403196115  0.033885201
     0.455014790  0.151835245  0.136279442
     0.452379150  0.278193325  0.187320155
     0.202396340  0.401950165  0.136410267
     0.451942800  0.153383525  0.238252108
     0.452379550  0.278193395  0.289179753
     0.202574140  0.403401325  0.238285643
     0.450673430  0.154031525  0.340171690
     0.452379350  0.278193085  0.390241866
     0.202403080  0.404084775  0.340277566
     0.452526690  0.403203795  0.033836973
     0.452383250  0.528189975  0.085455668
     0.202162730  0.653169045  0.033881515
     0.449734330  0.404552595  0.136279299
     0.452367530  0.528199875  0.187351236
     0.202356620  0.654438895  0.136409868
     0.452813900  0.403006205  0.238252756
     0.452378410  0.528194555  0.289140933
     0.202185660  0.652980405  0.238287778
     0.454083960  0.402357095  0.340171840
     0.452380250  0.528192605  0.390177225
     0.202353920  0.652304475  0.340277809
     0.452242260  0.653167985  0.033846462
     0.452368700  0.778197945  0.085482291
     0.202631440  0.903196645  0.033885394
     0.455025300  0.651828395  0.136278707
     0.452385460  0.778191665  0.187320914
     0.202392540  0.901945715  0.136418305
     0.451943900  0.653383185  0.238252712
     0.452379340  0.778194305  0.289179697
     0.202574400  0.903401415  0.238285985
     0.450673580  0.654031475  0.340171771
     0.452379350  0.778193135  0.390241859
     0.202403270  0.904084975  0.340277629
     0.452525910  0.903204025  0.033837023
     0.449735640  0.904552225  0.136279660
     0.452814090  0.903006785  0.238252002
     0.454083880  0.902357225  0.340171703
     0.952383100  0.028190135  0.085455625
     0.702162820  0.153168935  0.033881503
     0.952367490  0.028199875  0.187351217
     0.702357120  0.154438615  0.136409868
     0.952378550  0.028194385  0.289140927
     0.702185900  0.152979865  0.238287903
     0.952380300  0.028192595  0.390177219
     0.702353930  0.152304415  0.340277815
     0.952242450  0.153167845  0.033846487
     0.952369610  0.278196995  0.085482304
     0.702631530  0.403196505  0.033885413
     0.955025390  0.151828045  0.136278738
     0.952386880  0.278190375  0.187320920
     0.702392790  0.401945175  0.136418435
     0.951944870  0.153382535  0.238252874
     0.952380340  0.278193365  0.289179816
     0.702574830  0.403401215  0.238286016
     0.950673620  0.154031455  0.340171759
     0.952379490  0.278192995  0.390241866
     0.702403340  0.404084865  0.340277691
     0.952526080  0.403203955  0.033837029
     0.952374720  0.528193085  0.085454909
     0.702161120  0.653169165  0.033881833
     0.949733310  0.404553245  0.136279218
     0.952382650  0.528190815  0.187349841
     0.702355990  0.654439435  0.136409501
     0.952814270  0.403006485  0.238252563
     0.952378390  0.528194535  0.289140728
     0.702186750  0.652979655  0.238287965
     0.954084240  0.402357025  0.340171759
     0.952380420  0.528192545  0.390177176
     0.702354010  0.652304425  0.340277815
     0.952241220  0.653168075  0.033846144
     0.952382820  0.778190465  0.085481021
     0.702631600  0.903196165  0.033885170
     0.955014490  0.651835645  0.136279280
     0.952377700  0.778194625  0.187320155
     0.702396360  0.901949205  0.136410634
     0.951944420  0.653382825  0.238252911
     0.952378570  0.778194325  0.289179704
     0.702570100  0.903409955  0.238286882
     0.950673360  0.654031525  0.340171771
     0.952379440  0.778193055  0.390241872
     0.702403110  0.904085005  0.340277566
     0.952526620  0.903203875  0.033836930
     0.949733340  0.904553275  0.136279149
     0.952813820  0.903006465  0.238252750
     0.954083690  0.902357235  0.340171802
     0.196508207  0.055846493  0.501890246
     0.196099657  0.222949763  0.456631729
     0.196591897  0.055771253  0.594174602
     0.196675587  0.222430153  0.546122542
     0.196175077  0.056044513  0.688017440
     0.196342967  0.222606623  0.641759384
     0.196090227  0.056178973  0.781087992
     0.196133787  0.222771603  0.734880099
     0.196218927  0.056007923  0.876638845
     0.196329687  0.222754133  0.828691558
     0.196094897  0.056133713  0.966019860
     0.196327687  0.222565053  0.920917467
     0.529130797  0.054936613  0.502096153
     0.530195927  0.221786293  0.456697844
     0.528635307  0.055095253  0.594413653
     0.530653927  0.220561793  0.546731124
     0.529986607  0.054102553  0.687682517
     0.529733327  0.221114373  0.641303974
     0.528932407  0.054944233  0.781488816
     0.529963627  0.220719933  0.735200567
     0.530403937  0.054004333  0.876081217
     0.528777997  0.221474283  0.828337613
     0.530519867  0.055051323  0.966126500
     0.529464907  0.221430173  0.920627912
     0.196500177  0.389175633  0.501880165
     0.195994847  0.556467843  0.456670966
     0.196440687  0.389222793  0.594198141
     0.196680367  0.555788733  0.546120698
     0.196238627  0.389378173  0.687970418
     0.196465187  0.555910293  0.641764163
     0.196113837  0.389477763  0.781103619
     0.196145297  0.556159513  0.734848387
     0.196345727  0.389256953  0.876600170
     0.196101527  0.556203233  0.828724828
     0.196398937  0.389226593  0.966041824
     0.196384547  0.555890213  0.920935174
     0.863805727  0.056949353  0.502086144
     0.862190317  0.223523063  0.456723566
     0.864464827  0.056478523  0.594409033
     0.862253007  0.224338693  0.546759078
     0.862395907  0.057806193  0.687660640
     0.863215597  0.223778843  0.641335045
     0.863000387  0.057058793  0.781585480
     0.862350327  0.224525213  0.735242826
     0.862365557  0.057627613  0.876081509
     0.864261557  0.223304133  0.828467089
     0.862510317  0.056555883  0.966163070
     0.863111097  0.223667413  0.920751097
     0.529106077  0.388267293  0.502101968
     0.530778627  0.554812613  0.456757549
     0.528681617  0.388422513  0.594418171
     0.530963037  0.553842833  0.546687995
     0.530132567  0.387347633  0.687612233
     0.530132987  0.554640943  0.641365681
     0.529275577  0.387980163  0.781563500
     0.530188667  0.553842423  0.735183129
     0.530426287  0.387448683  0.876105618
     0.528742677  0.554841303  0.828429593
     0.530351847  0.388486263  0.966126113
     0.529283267  0.554828233  0.920737116
     0.196465227  0.722594973  0.501906743
     0.195910357  0.889714453  0.456675697
     0.196739717  0.722342783  0.594191194
     0.196706187  0.889000843  0.546156778
     0.196210267  0.722633353  0.687996006
     0.196562787  0.889110003  0.641799704
     0.196250597  0.722829083  0.781082367
     0.196256957  0.889469553  0.734891105
     0.196546017  0.722632523  0.876669726
     0.196213017  0.889462923  0.828685054
     0.196053397  0.722685533  0.966035692
     0.196429067  0.889199023  0.920906635
     0.863904787  0.390192493  0.502112127
     0.862277747  0.556921853  0.456728598
     0.864473777  0.389980473  0.594381823
     0.862238517  0.557790553  0.546782530
     0.862669137  0.391113673  0.687666210
     0.863102037  0.557278353  0.641343748
     0.863009317  0.390159973  0.781612903
     0.862390977  0.557830783  0.735231947
     0.862554267  0.390814173  0.876138477
     0.864174077  0.556617743  0.828444713
     0.862408307  0.390138103  0.966124182
     0.863389497  0.556958053  0.920722423
     0.529283157  0.721655183  0.502139187
     0.530436417  0.888290443  0.456709253
     0.528799947  0.721677873  0.594410536
     0.530865327  0.887215563  0.546700235
     0.529817277  0.720924473  0.687707614
     0.529795587  0.887874123  0.641339112
     0.529294637  0.721337683  0.781560398
     0.530127947  0.887307143  0.735163245
     0.530371627  0.720849573  0.876076786
     0.528370327  0.888418393  0.828363850
     0.530439637  0.721715893  0.966144271
     0.529314147  0.888154393  0.920706994
     0.863831347  0.723630133  0.502106233
     0.862231827  0.890167873  0.456726771
     0.864403097  0.723311523  0.594414848
     0.862094887  0.891028963  0.546786170
     0.862550277  0.724512673  0.687687438
     0.863178167  0.890525873  0.641337893
     0.862886787  0.723697413  0.781581128
     0.862494877  0.891002123  0.735251118
     0.862220357  0.724331263  0.876117360
     0.864146467  0.889975873  0.828450987
     0.862517377  0.723300303  0.966158909
     0.863003707  0.890544803  0.920715128
     0.452411060  0.028173215  0.034899633
     0.452378440  0.028191985  0.136426853
     0.452378720  0.028194545  0.238266995
     0.452379540  0.028193395  0.340129315
     0.452412020  0.278173975  0.034905840
     0.452377330  0.278193055  0.136430035
     0.452378990  0.278193955  0.238260974
     0.452379480  0.278193725  0.340174399
     0.452411590  0.528173075  0.034900094
     0.452376600  0.528192035  0.136427874
     0.452378920  0.528194055  0.238267873
     0.452379440  0.528193455  0.340129483
     0.452411060  0.778174705  0.034906438
     0.452374530  0.778193775  0.136430844
     0.452379330  0.778194425  0.238261186
     0.452379080  0.778193995  0.340174380
     0.952411600  0.028173065  0.034900069
     0.952376670  0.028191955  0.136427862
     0.952378770  0.028194195  0.238267867
     0.952379470  0.028193405  0.340129477
     0.952411070  0.278174675  0.034906457
     0.952374770  0.278193375  0.136430869
     0.952380120  0.278193845  0.238261242
     0.952379090  0.278193715  0.340174442
     0.952411040  0.528173235  0.034899732
     0.952378230  0.528192175  0.136426953
     0.952379460  0.528193775  0.238267344
     0.952379030  0.528193885  0.340129502
     0.952411970  0.778174005  0.034905822
     0.952376930  0.778193465  0.136429991
     0.952378870  0.778194505  0.238260925
     0.952379010  0.778193995  0.340174386

  ion indices of the primitive-cell ions
   primitive index   ion index
                 1           1
                 2           2
                 3           3
                 4           4
                 5           5
                 6           6
                 7           7
                 8           8
                 9           9
                10          10
                11          11
                12          12
                13          13
                14          14
                15          15
                16          16
                17          17
                18          18
                19          19
                20          20
                21          21
                22          22
                23          23
                24          24
                25          25
                26          26
                27          27
                28          28
                29          29
                30          30
                31          31
                32          32
                33          33
                34          34
                35          35
                36          36
                37          37
                38          38
                39          39
                40          40
                41          41
                42          42
                43          43
                44          44
                45          45
                46          46
                47          47
                48          48
                49          49
                50          50
                51          51
                52          52
                53          53
                54          54
                55          55
                56          56
                57          57
                58          58
                59          59
                60          60
                61          61
                62          62
                63          63
                64          64
                65          65
                66          66
                67          67
                68          68
                69          69
                70          70
                71          71
                72          72
                73          73
                74          74
                75          75
                76          76
                77          77
                78          78
                79          79
                80          80
                81          81
                82          82
                83          83
                84          84
                85          85
                86          86
                87          87
                88          88
                89          89
                90          90
                91          91
                92          92
                93          93
                94          94
                95          95
                96          96
                97          97
                98          98
                99          99
               100         100
               101         101
               102         102
               103         103
               104         104
               105         105
               106         106
               107         107
               108         108
               109         109
               110         110
               111         111
               112         112
               113         113
               114         114
               115         115
               116         116
               117         117
               118         118
               119         119
               120         120
               121         121
               122         122
               123         123
               124         124
               125         125
               126         126
               127         127
               128         128
               129         129
               130         130
               131         131
               132         132
               133         133
               134         134
               135         135
               136         136
               137         137
               138         138
               139         139
               140         140
               141         141
               142         142
               143         143
               144         144
               145         145
               146         146
               147         147
               148         148
               149         149
               150         150
               151         151
               152         152
               153         153
               154         154
               155         155
               156         156
               157         157
               158         158
               159         159
               160         160
               161         161
               162         162
               163         163
               164         164
               165         165
               166         166
               167         167
               168         168
               169         169
               170         170
               171         171
               172         172
               173         173
               174         174
               175         175
               176         176
               177         177
               178         178
               179         179
               180         180
               181         181
               182         182
               183         183
               184         184
               185         185
               186         186
               187         187
               188         188
               189         189
               190         190
               191         191
               192         192
               193         193
               194         194
               195         195
               196         196
               197         197
               198         198
               199         199
               200         200
               201         201
               202         202
               203         203
               204         204
               205         205
               206         206
               207         207
               208         208
               209         209
               210         210
               211         211
               212         212
               213         213
               214         214
               215         215
               216         216
               217         217
               218         218
               219         219
               220         220
               221         221
               222         222
               223         223
               224         224
               225         225
               226         226
               227         227
               228         228
               229         229
               230         230
               231         231
               232         232
               233         233
               234         234
               235         235
               236         236
               237         237
               238         238
               239         239
               240         240
               241         241
               242         242
               243         243
               244         244
               245         245
               246         246
               247         247
               248         248
               249         249
               250         250
               251         251
               252         252
               253         253
               254         254
               255         255
               256         256
               257         257
               258         258
               259         259
               260         260
               261         261
               262         262
               263         263
               264         264
               265         265
               266         266
               267         267
               268         268

----------------------------------------------------------------------------------------

 
 -----------------------------------------------------------------------------
|                                                                             |
|           W    W    AA    RRRRR   N    N  II  N    N   GGGG   !!!           |
|           W    W   A  A   R    R  NN   N  II  NN   N  G    G  !!!           |
|           W    W  A    A  R    R  N N  N  II  N N  N  G       !!!           |
|           W WW W  AAAAAA  RRRRR   N  N N  II  N  N N  G  GGG   !            |
|           WW  WW  A    A  R   R   N   NN  II  N   NN  G    G                |
|           W    W  A    A  R    R  N    N  II  N    N   GGGG   !!!           |
|                                                                             |
|     The requested file  could not be found or opened for reading            |
|     k-point information. Automatic k-point generation is used as a          |
|     fallback, which may lead to unwanted results.                           |
|                                                                             |
 -----------------------------------------------------------------------------

 

Automatic generation of k-mesh.
 Grid dimensions derived from KSPACING:
 generate k-points for:    2    1    1

 Generating k-lattice:

  Cartesian coordinates                     Fractional coordinates (reciprocal lattice)
     0.000000000  0.056133561  0.000000000     0.500000000  0.000000000  0.000000000
    -0.056133561 -0.056133561  0.000000000     0.000000000  1.000000000  0.000000000
     0.000000000  0.000000000  0.022557953     0.000000000  0.000000000  1.000000000

  Length of vectors
     0.056133561  0.079384843  0.022557953

  Shift w.r.t. Gamma in fractional coordinates (k-lattice)
     0.000000000  0.000000000  0.000000000

 
 Subroutine IBZKPT returns following result:
 ===========================================
 
 Found      2 irreducible k-points:
 
 Following reciprocal coordinates:
            Coordinates               Weight
  0.000000  0.000000  0.000000      1.000000
  0.500000  0.000000  0.000000      1.000000
 
 Following cartesian coordinates:
            Coordinates               Weight
  0.000000  0.000000  0.000000      1.000000
  0.000000  0.056134  0.000000      1.000000
 


--------------------------------------------------------------------------------------------------------




 Dimension of arrays:
   k-points           NKPTS =      2   k-points in BZ     NKDIM =      2   number of bands    NBANDS=    448
   number of dos      NEDOS =    301   number of ions     NIONS =    268
   non local maximal  LDIM  =      4   non local SUM 2l+1 LMDIM =      8
   total plane-waves  NPLWV = ******
   max r-space proj   IRMAX =   2071   max aug-charges    IRDMAX=   9128
   dimension x,y,z NGX =    64 NGY =   90 NGZ =  224
   dimension x,y,z NGXF=   128 NGYF=  180 NGZF=  448
   support grid    NGXF=   128 NGYF=  180 NGZF=  448
   ions per type =              32 204  32
   NGX,Y,Z   is equivalent  to a cutoff of   8.45,  8.40,  8.40 a.u.
   NGXF,Y,Z  is equivalent  to a cutoff of  16.89, 16.80, 16.80 a.u.

 SYSTEM =  unknown system                          
 POSCAR =  Cl Na  O                                

 Startparameter for this run:
   NWRITE =      1    write-flag & timer
   PREC   = normal    normal or accurate (medium, high low for compatibility)
   ISTART =      0    job   : 0-new  1-cont  2-samecut
   ICHARG =      2    charge: 1-file 2-atom 10-const
   ISPIN  =      1    spin polarized calculation?
   LNONCOLLINEAR =      F non collinear calculations
   LSORBIT =      F    spin-orbit coupling
   INIWAV =      1    electr: 0-lowe 1-rand  2-diag
   LASPH  =      T    aspherical Exc in radial PAW
 Electronic Relaxation 1
   ENCUT  =  400.0 eV  29.40 Ry    5.42 a.u.  20.54 29.05 72.29*2*pi/ulx,y,z
   ENINI  =  400.0     initial cutoff
   ENAUG  =  605.4 eV  augmentation charge cutoff
   NELM   =    150;   NELMIN=  2; NELMDL=  0     # of ELM steps 
   EDIFF  = 0.1E-07   stopping-criterion for ELM
   LREAL  =      T    real-space projection
   NLSPLINE    = F    spline interpolate recip. space projectors
   LCOMPAT=      F    compatible to vasp.4.4
   GGA_COMPAT  = T    GGA compatible to vasp.4.4-vasp.4.6
   LMAXPAW     = -100 max onsite density
   LMAXMIX     =    6 max onsite mixed and CHGCAR
   VOSKOWN=      0    Vosko Wilk Nusair interpolation
   ROPT   =   -0.00050  -0.00050  -0.00050
 Ionic relaxation
   EDIFFG = -.1E-01   stopping-criterion for IOM
   NSW    =      0    number of steps for IOM
   NBLOCK =      1;   KBLOCK =      1    inner block; outer block 
   IBRION =     -1    ionic relax: 0-MD 1-quasi-New 2-CG
   NFREE  =      0    steps in history (QN), initial steepest desc. (CG)
   ISIF   =      3    stress and relaxation
   IWAVPR =     10    prediction:  0-non 1-charg 2-wave 3-comb
   ISYM   =      2    0-nonsym 1-usesym 2-fastsym
   LCORR  =      T    Harris-Foulkes like correction to forces

   POTIM  = 0.5000    time-step for ionic-motion
   TEIN   =    0.0    initial temperature
   TEBEG  =    0.0;   TEEND  =   0.0 temperature during run
   SMASS  =  -3.00    Nose mass-parameter (am)
   estimated Nose-frequenzy (Omega)   =  0.10E-29 period in steps = 0.13E+47 mass=  -0.363E-26a.u.
   SCALEE = 1.0000    scale energy and forces
   NPACO  =    256;   APACO  = 16.0  distance and # of slots for P.C.
   PSTRESS=    0.0 pullay stress

  Mass of Ions in am
   POMASS =  35.45 22.99 16.00
  Ionic Valenz
   ZVAL   =   7.00  1.00  6.00
  Atomic Wigner-Seitz radii
   RWIGS  =  -1.00 -1.00 -1.00
  virtual crystal weights 
   VCA    =   1.00  1.00  1.00
   NELECT =     620.0000    total number of electrons
   NUPDOWN=      -1.0000    fix difference up-down

 DOS related values:
   EMIN   =  10.00;   EMAX   =-10.00  energy-range for DOS
   EFERMI =   0.00
   ISMEAR =     0;   SIGMA  =   0.10  broadening in eV -4-tet -1-fermi 0-gaus

 Electronic relaxation 2 (details)
   IALGO  =     68    algorithm
   LDIAG  =      T    sub-space diagonalisation (order eigenvalues)
   LSUBROT=      F    optimize rotation matrix (better conditioning)
   TURBO    =      0    0=normal 1=particle mesh
   IRESTART =      0    0=no restart 2=restart with 2 vectors
   NREBOOT  =      0    no. of reboots
   NMIN     =      0    reboot dimension
   EREF     =   0.00    reference energy to select bands
   IMIX   =      4    mixing-type and parameters
     AMIX     =   0.40;   BMIX     =  1.00
     AMIX_MAG =   1.60;   BMIX_MAG =  1.00
     AMIN     =   0.01
     WC   =   100.;   INIMIX=   1;  MIXPRE=   1;  MAXMIX= -45

 Intra band minimization:
   WEIMIN = 0.0000     energy-eigenvalue tresh-hold
   EBREAK =  0.56E-11  absolut break condition
   DEPER  =   0.30     relativ break condition  

   TIME   =   0.40     timestep for ELM

  volume/ion in A,a.u.               =      26.25       177.13
  Fermi-wavevector in a.u.,A,eV,Ry     =   0.728557  1.376774  7.221913  0.530796
  Thomas-Fermi vector in A             =   1.820060
 
 Write flags
   LWAVE        =      F    write WAVECAR
   LDOWNSAMPLE  =      F    k-point downsampling of WAVECAR
   LCHARG       =      F    write CHGCAR
   LVTOT        =      F    write LOCPOT, total local potential
   LVHAR        =      F    write LOCPOT, Hartree potential only
   LELF         =      F    write electronic localiz. function (ELF)
   LORBIT       =      0    0 simple, 1 ext, 2 COOP (PROOUT), +10 PAW based schemes


 Dipole corrections
   LMONO  =      F    monopole corrections only (constant potential shift)
   LDIPOL =      F    correct potential (dipole corrections)
   IDIPOL =      0    1-x, 2-y, 3-z, 4-all directions 
   EPSILON=  1.0000000 bulk dielectric constant

 Exchange correlation treatment:
   GGA     =    PE    GGA type
   LEXCH   =     8    internal setting for exchange type
   VOSKOWN=      0    Vosko Wilk Nusair interpolation
   LHFCALC =     F    Hartree Fock is set to
   LHFONE  =     F    Hartree Fock one center treatment
   AEXX    =    0.0000 exact exchange contribution

 Linear response parameters
   LEPSILON=     F    determine dielectric tensor
   LRPA    =     F    only Hartree local field effects (RPA)
   LNABLA  =     F    use nabla operator in PAW spheres
   LVEL    =     F    velocity operator in full k-point grid
   LINTERFAST=   F  fast interpolation
   KINTER  =     0    interpolate to denser k-point grid
   CSHIFT  =0.1000    complex shift for real part using Kramers Kronig
   OMEGAMAX=  -1.0    maximum frequency
   DEG_THRESHOLD= 0.2000000E-02 threshold for treating states as degnerate
   RTIME   =   -0.100 relaxation time in fs
  (WPLASMAI=    0.000 imaginary part of plasma frequency in eV, 0.658/RTIME)
   DFIELD  = 0.0000000 0.0000000 0.0000000 field for delta impulse in time
 
 Orbital magnetization related:
   ORBITALMAG=     F  switch on orbital magnetization
   LCHIMAG   =     F  perturbation theory with respect to B field
   DQ        =  0.001000  dq finite difference perturbation B field
   LLRAUG    =     F  two centre corrections for induced B field



--------------------------------------------------------------------------------------------------------


 Static calculation
 charge density and potential will be updated during run
 non-spin polarized calculation
 RMM-DIIS sequential band-by-band and
  variant of blocked Davidson during initial phase
 perform sub-space diagonalisation
    before iterative eigenvector-optimisation
 modified Broyden-mixing scheme, WC =      100.0
 initial mixing is a Kerker type mixing with AMIX =  0.4000 and BMIX =      1.0000
 Hartree-type preconditioning will be used
 using additional bands          138
 real space projection scheme for non local part
 use partial core corrections
 calculate Harris-corrections to forces 
   (improved forces if not selfconsistent)
 use gradient corrections 
 use of overlap-Matrix (Vanderbilt PP)
 Gauss-broadening in eV      SIGMA  =   0.10


--------------------------------------------------------------------------------------------------------


  energy-cutoff  :      400.00
  volume of cell :     7034.37
      direct lattice vectors                 reciprocal lattice vectors
    -8.907327300  8.907327300  0.000000000     0.000000000  0.112267122  0.000000000
   -17.814654600  0.000000000  0.000000000    -0.056133561 -0.056133561  0.000000000
     0.000000000  0.000000000 44.330263456     0.000000000  0.000000000  0.022557953

  length of vectors
[...]
    -11.21290      4.00593      6.04130         0.010961     -0.007239      0.004495
    -13.43908      4.02939      8.30533         0.002393     -0.000558     -0.000239
    -13.46106      1.80246      6.04709        -0.002414     -0.009666      0.005159
    -11.21278      4.03336     10.56181         0.000219      0.005577     -0.001938
    -13.43909      4.02948     12.81769        -0.003501     -0.000642      0.018231
    -13.43355      1.80093     10.56336        -0.004558      0.014682     -0.002571
    -11.21253      4.04467     15.07991         0.002571      0.022526     -0.022879
    -13.43907      4.02950     17.29666         0.105248     -0.050237     -0.057436
    -13.42301      1.80243     15.08460        -0.019461     -0.002353     -0.024467
    -15.66423      4.02827      1.50042         0.040725      0.024937     -0.027766
    -17.89272      4.02940      3.78945         0.007221      0.008079      0.049475
    -17.89504      1.80490      1.50215         0.029794     -0.018365     -0.119163
    -15.66516      4.05306      6.04127        -0.013109      0.013353      0.010503
    -17.89276      4.02955      8.30399        -0.001799     -0.004593     -0.009794
    -17.87063      1.80278      6.04746         0.012388     -0.006572      0.009365
    -15.66541      4.02561     10.56181        -0.011891     -0.003161      0.001559
    -17.89275      4.02949     12.81941         0.002865      0.006054      0.003157
    -17.89818      1.80440     10.56328         0.002153     -0.014248     -0.000896
    -15.66564      4.01430     15.07990        -0.011064     -0.011783     -0.013229
    -17.89273      4.02949     17.29952         0.016669      0.044917      0.095929
    -17.90883      1.80287     15.08460        -0.008897     -0.002893     -0.003871
    -20.12106      4.03080      1.50000        -0.003748      0.052063     -0.078280
    -20.12023      4.00594      6.04131         0.010531     -0.003903      0.009661
    -20.12012      4.03336     10.56177         0.000918      0.002775      0.001820
    -20.11986      4.04467     15.07990         0.014316     -0.002883     -0.002049
     -8.98539      8.48319      3.78827         0.002820     -0.009536      0.050569
     -8.98305      6.25439      1.50198        -0.014728     -0.112981      0.064644
     -8.98542      8.48305      8.30533         0.002173     -0.000502      0.001530
     -9.00740      6.25612      6.04709        -0.006071     -0.012044      0.005794
     -8.98542      8.48315     12.81769        -0.001193      0.001404      0.024268
     -8.97988      6.25460     10.56337        -0.002335      0.015836     -0.001847
     -8.98540      8.48316     17.29666         0.014877     -0.058136      0.089739
     -8.96935      6.25610     15.08461        -0.000129      0.014487     -0.024163
    -11.21057      8.48194      1.50042        -0.039036     -0.064279     -0.064869
    -13.43905      8.48307      3.78945        -0.001613     -0.001601      0.050391
    -13.44138      6.25857      1.50215         0.017907     -0.056621      0.032275
    -11.21149      8.50672      6.04127        -0.015413      0.009052      0.012107
    -13.43909      8.48322      8.30399        -0.001900     -0.004709     -0.010832
    -13.41696      6.25644      6.04747         0.011125     -0.007176      0.004265
    -11.21174      8.47928     10.56181        -0.010611     -0.000651      0.002283
    -13.43908      8.48316     12.81942         0.006484      0.009556     -0.000015
    -13.44452      6.25806     10.56328         0.002855     -0.013950     -0.003721
    -11.21198      8.46796     15.07990         0.003285      0.009782     -0.008261
    -13.43907      8.48316     17.29952        -0.058486     -0.008201      0.036765
    -13.45517      6.25654     15.08460        -0.002952      0.001689     -0.019358
    -15.66740      8.48446      1.50000        -0.077972      0.054338      0.118806
    -17.89269      8.48311      3.78824        -0.000251      0.003121      0.048406
    -17.89036      6.25438      1.50199        -0.011902      0.121838      0.038888
    -15.66656      8.45959      6.04129         0.008617     -0.004046      0.006012
    -17.89272      8.48318      8.30527         0.001961      0.000205     -0.001106
    -17.91473      6.25611      6.04707        -0.005687     -0.007582      0.006262
    -15.66645      8.48703     10.56180         0.001142      0.003432     -0.000945
    -17.89275      8.48315     12.81768         0.000536     -0.004573      0.014732
    -17.88721      6.25461     10.56337        -0.002299      0.013522     -0.001555
    -15.66619      8.49834     15.07990         0.020779      0.003668     -0.018079
    -17.89273      8.48316     17.29666        -0.033130      0.116265     -0.180378
    -17.87668      6.25610     15.08461         0.000237     -0.018216     -0.022194
    -20.11789      8.48192      1.50041         0.040015      0.109707      0.216332
    -22.34638      8.48319      3.78940         0.008950      0.002667      0.050295
    -22.34870      6.25857      1.50214         0.002802      0.020384      0.028623
    -20.11885      8.50663      6.04130        -0.013663      0.014269      0.006400
    -22.34641      8.48314      8.30395        -0.001633     -0.004682     -0.011640
    -22.32439      6.25647      6.04712         0.010634     -0.005852      0.004226
    -20.11907      8.47928     10.56181        -0.011211     -0.003879     -0.001208
    -22.34641      8.48315     12.81941         0.000945      0.007688     -0.003314
    -22.35196      6.25802     10.56332         0.003134     -0.014557     -0.003660
    -20.11930      8.46796     15.07990        -0.006805     -0.017783     -0.027531
    -22.34640      8.48316     17.29952         0.092461      0.048746     -0.046214
    -22.36250      6.25653     15.08459        -0.000356     -0.008809     -0.019707
    -24.57473      8.48447      1.50000         0.068047     -0.033042     -0.023359
    -24.57389      8.45959      6.04129         0.011313     -0.006514      0.008997
    -24.57377      8.48702     10.56181        -0.000378      0.005330      0.000791
    -24.57352      8.49834     15.07991         0.000268      0.019188     -0.008472
     -2.74525      1.75036     22.24893        -0.015486     -0.008223     -0.006119
     -5.71850      1.74672     20.24260        -0.108509      0.019016     -0.126037
     -2.74465      1.75111     26.33992        -0.001565      0.006491     -0.002598
     -5.71437      1.75185     24.20976        -0.004321      0.001801      0.021314
     -2.74581      1.74740     30.49999        -0.003739      0.004091     -0.008845
     -5.71455      1.74889     28.44936        -0.000672      0.002131     -0.004761
     -2.74745      1.74664     34.62584         0.003293      0.004779      0.007958
     -5.71563      1.74703     32.57743        -0.006135      0.000814      0.009116
     -2.74555      1.74779     38.86163        -0.007659      0.003654     -0.014996
     -5.71706      1.74877     36.73612        -0.001859      0.001210     -0.005965
     -2.74668      1.74668     42.82391        -0.022109     -0.002521     -0.152498
     -5.71367      1.74875     40.82451        -0.014606      0.006565     -0.016905
     -5.69182      4.71314     22.25805         0.010061     -0.008527      0.003299
     -8.67367      4.72263     20.24554         0.070683      0.153957      0.373477
     -5.69023      4.70873     26.35051        -0.003509     -0.000475      0.006364
     -8.65594      4.72671     24.23673        -0.003497     -0.002896      0.006340
     -5.68458      4.72076     30.48515        -0.003014      0.004295      0.004836
     -8.65758      4.71851     28.42917         0.000284     -0.003239      0.002956
     -5.69019      4.71137     34.64361         0.001518      0.001552     -0.001779
     -8.65261      4.72056     32.59163        -0.002922     -0.001272     -0.000220
     -5.68655      4.72448     38.83691         0.000764     -0.003843     -0.004524
     -8.65549      4.71000     36.72042        -0.010499      0.001153      0.000992
     -5.70623      4.72551     42.82864         0.185036     -0.095016      0.069128
     -8.66082      4.71612     40.81168        -0.001716      0.008493      0.005725
     -8.68332      1.75029     22.24848        -0.015187     -0.007221     -0.000335
    -11.65907      1.74579     20.24434         0.064303      0.015267     -0.189029
     -8.68363      1.74976     26.34096        -0.001118      0.006332     -0.000227
    -11.65308      1.75190     24.20967        -0.002642      0.001503      0.023113
     -8.68460      1.74796     30.49791        -0.003265      0.005192     -0.009632
    -11.65333      1.74998     28.44957        -0.002670      0.003008     -0.002894
     -8.68526      1.74685     34.62653         0.001189      0.003362      0.007131
    -11.65492      1.74713     32.57602        -0.003202     -0.000822      0.012358
     -8.68339      1.74892     38.85992        -0.005062      0.004659     -0.015288
    -11.65531      1.74674     36.73759        -0.004319      0.003831     -0.012116
     -8.68333      1.74939     42.82489        -0.012481     -0.021286     -0.142382
    -11.65225      1.74926     40.82530         0.005429      0.003943     -0.021510
     -8.70873      7.69420     22.25761         0.002491      0.008636      0.004873
    -11.66180      7.67981     20.24668         0.089114     -0.109744     -0.029208
     -8.70622      7.70007     26.35031         0.003309     -0.007257      0.001124
    -11.67689      7.68037     24.23797        -0.000324      0.003544      0.009023
     -8.71144      7.68164     30.48418        -0.001999      0.009846      0.006780
    -11.67549      7.68894     28.43055         0.000620      0.006457      0.018784
     -8.70351      7.68703     34.64789        -0.006780      0.004479     -0.005443
    -11.68108      7.68124     32.59351         0.007519     -0.001399      0.007072
     -8.70799      7.68137     38.83692         0.004715      0.001228     -0.006342
    -11.67635      7.69826     36.72616         0.006883      0.000866      0.002758
     -8.69019      7.68266     42.83026        -0.058913      0.191257      0.239169
    -11.67257      7.68801     40.81714         0.013012     -0.013007     -0.007823
    -11.62977      4.71292     22.25831        -0.016561     -0.006282     -0.000199
    -14.61161      4.72782     20.24818        -0.163724      0.122147      0.142642
    -11.62875      4.70914     26.35071        -0.002634      0.000766      0.005281
    -14.59598      4.72946     24.23482        -0.002573     -0.005853      0.009513
    -11.62253      4.72206     30.48203        -0.001365      0.003026      0.005636
    -14.60280      4.72207     28.43191         0.006672     -0.001562      0.003739
    -11.62616      4.71443     34.64692         0.000469      0.001459      0.001104
    -14.58908      4.72256     32.59086        -0.004170     -0.000528      0.000736
    -11.62695      4.72468     38.83799         0.000542     -0.002914     -0.006556
    -14.59399      4.70968     36.72450        -0.006593      0.002936     -0.000792
    -11.64477      4.72402     42.82863        -0.106016     -0.033208     -0.098892
    -14.59857      4.71450     40.81652        -0.014083      0.012249     -0.004247
    -14.62276      1.74998     22.24966         0.007218     -0.007182     -0.003265
    -17.59499      1.74504     20.24455         0.051353      0.022718      0.000976
    -14.62071      1.75243     26.34065        -0.003641      0.005704     -0.003694
    -17.58937      1.75213     24.21127        -0.005163     -0.000374      0.019858
    -14.62117      1.74771     30.49904        -0.003941      0.005502     -0.010250
    -17.59004      1.75085     28.45115        -0.005123      0.000405     -0.005426
    -14.62502      1.74807     34.62559         0.003716      0.003234      0.007002
    -17.59372      1.74812     32.57792        -0.002839     -0.003159      0.010083
    -14.62415      1.75070     38.86300        -0.004689     -0.004597     -0.021939
    -17.59321      1.74773     36.73583        -0.005528      0.001561     -0.004861
    -14.62070      1.74631     42.82462         0.015586     -0.009827     -0.142349
    -17.59043      1.74966     40.82403         0.001931      0.004848     -0.015648
    -14.64623      7.69508     22.25876         0.023107      0.010740     -0.001514
    -17.60196      7.68059     20.24690         0.068998     -0.161436      0.331575
    -14.64752      7.70015     26.34910         0.002577     -0.005709     -0.000775
    -17.61709      7.68024     24.23901        -0.000132      0.003926      0.005518
    -14.65163      7.68408     30.48442        -0.000717      0.006905      0.005035
    -17.61565      7.68793     28.43094         0.000206      0.004078      0.016873
    -14.63767      7.68711     34.64911        -0.009063      0.002918     -0.002622
    -17.61916      7.68160     32.59303         0.008000     -0.001229      0.009866
    -14.64527      7.68305     38.83945         0.005994     -0.000119     -0.005013
    -17.61343      7.69748     36.72517         0.007500      0.001062      0.002983
    -14.63193      7.68175     42.82854         0.173680      0.096533      0.036623
    -17.61251      7.69049     40.81587         0.010949     -0.007754      0.002309
    -17.57054      4.71450     22.25996        -0.008926     -0.011082      0.004011
    -20.54936      4.72477     20.24604         0.085040      0.104786     -0.007620
    -17.56664      4.71019     26.35038        -0.003163     -0.001111      0.008415
    -20.53403      4.72859     24.23537        -0.001986     -0.006740      0.012582
    -17.56228      4.71926     30.48626        -0.000172      0.007633      0.005006
    -20.53623      4.71906     28.43073         0.001320     -0.003961      0.005942
    -17.56498      4.71460     34.64678         0.000356      0.002079     -0.000556
    -20.52909      4.72202     32.58998        -0.002691     -0.001702      0.000640
    -17.56588      4.72419     38.83671        -0.000885     -0.001972     -0.008464
    -20.53323      4.70637     36.72159        -0.011282      0.000948     -0.003593
    -17.58192      4.72480     42.82943        -0.070029     -0.178277      0.279031
    -20.53694      4.71477     40.81518         0.001558      0.011887     -0.005258
    -20.58565      7.69443     22.25850        -0.001764      0.008987     -0.001335
    -23.53821      7.68018     20.24682        -0.156783     -0.129994      0.111035
    -20.58507      7.69952     26.35057         0.005418     -0.004534     -0.003536
    -23.55233      7.67896     24.23917        -0.004040      0.004936      0.007418
    -20.58996      7.68302     30.48537         0.002468      0.006764      0.004200
    -23.55302      7.68861     28.43068         0.003728      0.005331      0.016514
    -20.57843      7.68602     34.64770        -0.008557      0.005579      0.000726
    -23.55542      7.68252     32.59388         0.004921     -0.001036      0.007181
    -20.58379      7.68008     38.83851         0.005186     -0.000074     -0.003624
    -23.55185      7.69724     36.72545         0.008366      0.001055      0.001668
    -20.56807      7.68272     42.83008        -0.100270      0.032314     -0.111684
    -23.55180      7.68706     40.81554         0.002708     -0.011595     -0.002376
     -4.53167      4.02977      1.54711        -0.120315      0.051424     -0.238857
     -4.53171      4.02948      6.04784         0.005005     -0.001315     -0.028223
     -4.53176      4.02949     10.56244        -0.000567     -0.000105     -0.001771
     -4.53175      4.02949     15.07802        -0.014932      0.006179     -0.016193
     -8.98536      4.02978      1.54739        -0.026835     -0.083594     -0.070744
     -8.98539      4.02947      6.04798         0.001607      0.002575     -0.020936
     -8.98542      4.02949     10.56217         0.000717     -0.001781      0.004688
     -8.98542      4.02949     15.08002        -0.002685     -0.012291      0.012647
    -13.43900      4.02978      1.54713         0.102706     -0.016894     -0.148078
    -13.43903      4.02947      6.04788        -0.001417      0.000466     -0.024004
    -13.43908      4.02949     10.56248         0.003181     -0.001128      0.000276
    -13.43908      4.02949     15.07803         0.016259     -0.003437     -0.002559
    -17.89269      4.02977      1.54741         0.050208      0.115374     -0.329792
    -17.89270      4.02945      6.04802        -0.000692     -0.003180     -0.032727
    -17.89276      4.02949     10.56218         0.001751      0.001479     -0.002324
    -17.89275      4.02949     15.08002         0.006283      0.015060     -0.031748
     -8.98534      8.48344      1.54713         0.043722     -0.129944     -0.319160
     -8.98536      8.48313      6.04788         0.000567      0.003491     -0.031456
     -8.98542      8.48315     10.56248         0.001866     -0.002339     -0.003644
     -8.98541      8.48316     15.07803         0.006589     -0.016475     -0.026174
    -13.43902      8.48344      1.54741        -0.109061     -0.054589     -0.226111
    -13.43903      8.48311      6.04802         0.003714      0.001551     -0.028467
    -13.43909      8.48316     10.56218        -0.000391     -0.000560     -0.000160
    -13.43908      8.48315     15.08002        -0.013102     -0.005308     -0.019943
    -17.89266      8.48344      1.54711        -0.020284      0.094581     -0.084487
    -17.89271      8.48314      6.04784         0.002295     -0.002975     -0.020768
    -17.89275      8.48316     10.56245         0.000782      0.001395      0.002575
    -17.89274      8.48315     15.07803        -0.002901      0.014706      0.013105
    -22.34635      8.48345      1.54738         0.091727      0.017554     -0.153909
    -22.34638      8.48313      6.04798        -0.002078     -0.000792     -0.025314
    -22.34642      8.48315     10.56217         0.002820      0.000367      0.001890
    -22.34641      8.48315     15.08002         0.014324      0.003551     -0.006886
 -----------------------------------------------------------------------------------
    total drift:                               -0.260467      0.051398      0.023285


--------------------------------------------------------------------------------------------------------



  FREE ENERGIE OF THE ION-ELECTRON SYSTEM (eV)
  ---------------------------------------------------
  free  energy   TOTEN  =      -715.18901530 eV

  energy  without entropy=     -714.87290218  energy(sigma->0) =     -715.03095874
 


--------------------------------------------------------------------------------------------------------


    POTLOK:  cpu time    0.2376: real time    0.2377


--------------------------------------------------------------------------------------------------------


     LOOP+:  cpu time  256.9617: real time  257.2740
    4ORBIT:  cpu time    0.0000: real time    0.0000

 total amount of memory used by VASP MPI-rank0    79002. kBytes
=======================================================================

   base      :      30000. kBytes
   nonlr-proj:      11248. kBytes
   fftplans  :       7850. kBytes
   grid      :      14395. kBytes
   one-center:         55. kBytes
   wavefun   :      15454. kBytes
 
  
  
 General timing and accounting informations for this job:
 ========================================================
  
                  Total CPU time used (sec):      266.257
                            User time (sec):      264.823
                          System time (sec):        1.434
                         Elapsed time (sec):      266.737
  
                   Maximum memory used (kb):      145376.
                   Average memory used (kb):          N/A
  
                          Minor page faults:       173083
                          Major page faults:            0
                 Voluntary context switches:          768
