<?xml version="1.0" encoding="ISO-8859-1"?>
<modeling>
 <generator>
  <i name="program" type="string">vasp </i>
  <i name="version" type="string">6.2.1  </i>
  <i name="subversion" type="string">16May21 (build Dec 23 2021 00:35:04) complex                          parallel </i>
  <i name="platform" type="string">LinuxIFC </i>
  <i name="date" type="string">2023 03 28 </i>
  <i name="time" type="string">00:32:31 </i>
 </generator>
 <incar>
  <i type="string" name="PREC">Normal</i>
  <i type="string" name="ALGO">Fast</i>
  <i type="int" name="ISPIN">     0</i>
  <i name="AMIN">      0.01000000</i>
  <i type="int" name="NELM">   150</i>
  <i type="int" name="IBRION">    -1</i>
  <i name="EDIFF">      0.00000001</i>
  <i name="EDIFFG">     -0.01000000</i>
  <i type="int" name="NSW">     0</i>
  <i type="int" name="ISIF">     3</i>
  <i name="ENCUT">    400.00000000</i>
  <i type="string" name="LREAL">AUTO</i>
  <i type="int" name="ISMEAR">     0</i>
  <i name="SIGMA">      0.10000000</i>
  <i name="KSPACING">      0.50000000</i>
  <i type="logical" name="KGAMMA"> T  </i>
  <i type="int" name="NWRITE">     1</i>
  <i type="int" name="LMAXMIX">     6</i>
  <i type="logical" name="LWAVE"> F  </i>
  <i type="logical" name="LCHARG"> F  </i>
  <i type="logical" name="LASPH"> T  </i>
  <i type="string" name="GGA">PE</i>
 </incar>
 <primitive_cell>
  <structure name="primitive_cell" >
   <crystal>
    <varray name="basis" >
     <v>      -8.90732730       8.90732730       0.00000000 </v>
     <v>     -17.81465460       0.00000000       0.00000000 </v>
     <v>       0.00000000       0.00000000      44.33026346 </v>
    </varray>
    <i name="volume">   7034.36872935 </i>
    <varray name="rec_basis" >
     <v>       0.00000000       0.11226712       0.00000000 </v>
     <v>      -0.05613356      -0.05613356       0.00000000 </v>
     <v>       0.00000000       0.00000000       0.02255795 </v>
    </varray>
   </crystal>
   <varray name="positions" >
    <v>       0.20237370       0.02819653       0.08469789 </v>
    <v>       0.20237666       0.02819407       0.18727457 </v>
    <v>       0.20237779       0.02819448       0.28908027 </v>
    <v>       0.20237738       0.02819488       0.38977762 </v>
    <v>       0.20239690       0.27817532       0.08472702 </v>
    <v>       0.20237728       0.27819485       0.18727563 </v>
    <v>       0.20237738       0.27819505       0.28905657 </v>
    <v>       0.20237746       0.27819486       0.38984288 </v>
    <v>       0.20237535       0.52819424       0.08469846 </v>
    <v>       0.20237736       0.52819456       0.18727459 </v>
    <v>       0.20237778       0.52819461       0.28908022 </v>
    <v>       0.20237737       0.52819492       0.38977764 </v>
    <v>       0.20239683       0.77817433       0.08472704 </v>
    <v>       0.20237661       0.77819605       0.18727540 </v>
    <v>       0.20238384       0.77818983       0.28905134 </v>
    <v>       0.20237738       0.77819490       0.38984284 </v>
    <v>       0.70237551       0.02819440       0.08469835 </v>
    <v>       0.70237763       0.02819474       0.18727454 </v>
    <v>       0.70237801       0.02819456       0.28908028 </v>
    <v>       0.70237734       0.02819489       0.38977762 </v>
    <v>       0.70239668       0.27817442       0.08472706 </v>
    <v>       0.70237664       0.27819603       0.18727545 </v>
    <v>       0.70238373       0.27818988       0.28905134 </v>
    <v>       0.70237736       0.27819493       0.38984284 </v>
    <v>       0.70237412       0.52819642       0.08469802 </v>
    <v>       0.70237700       0.52819418       0.18727462 </v>
    <v>       0.70237779       0.52819465       0.28908023 </v>
    <v>       0.70237725       0.52819493       0.38977763 </v>
    <v>       0.70239760       0.77817464       0.08472708 </v>
    <v>       0.70237593       0.77819673       0.18727584 </v>
    <v>       0.70238385       0.77818976       0.28905138 </v>
    <v>       0.70237732       0.77819498       0.38984284 </v>
    <v>       0.45237453       0.02819327       0.08545472 </v>
    <v>       0.20216102       0.15316913       0.03388184 </v>
    <v>       0.45238276       0.02819077       0.18734958 </v>
    <v>       0.20235621       0.15443917       0.13640967 </v>
    <v>       0.45237862       0.02819435       0.28914056 </v>
    <v>       0.20218683       0.15298058       0.23828717 </v>
    <v>       0.45238020       0.02819267       0.39017708 </v>
    <v>       0.20235394       0.15230456       0.34027772 </v>
    <v>       0.45224132       0.15316808       0.03384611 </v>
    <v>       0.45238377       0.27818953       0.08548108 </v>
    <v>       0.20263155       0.40319612       0.03388520 </v>
    <v>       0.45501479       0.15183525       0.13627944 </v>
    <v>       0.45237915       0.27819333       0.18732015 </v>
    <v>       0.20239634       0.40195017       0.13641027 </v>
    <v>       0.45194280       0.15338353       0.23825211 </v>
    <v>       0.45237955       0.27819340       0.28917975 </v>
    <v>       0.20257414       0.40340133       0.23828564 </v>
    <v>       0.45067343       0.15403153       0.34017169 </v>
    <v>       0.45237935       0.27819309       0.39024187 </v>
    <v>       0.20240308       0.40408478       0.34027757 </v>
    <v>       0.45252669       0.40320380       0.03383697 </v>
    <v>       0.45238325       0.52818998       0.08545567 </v>
    <v>       0.20216273       0.65316905       0.03388152 </v>
    <v>       0.44973433       0.40455260       0.13627930 </v>
    <v>       0.45236753       0.52819988       0.18735124 </v>
    <v>       0.20235662       0.65443890       0.13640987 </v>
    <v>       0.45281390       0.40300621       0.23825276 </v>
    <v>       0.45237841       0.52819456       0.28914093 </v>
    <v>       0.20218566       0.65298041       0.23828778 </v>
    <v>       0.45408396       0.40235710       0.34017184 </v>
    <v>       0.45238025       0.52819261       0.39017723 </v>
    <v>       0.20235392       0.65230448       0.34027781 </v>
    <v>       0.45224226       0.65316799       0.03384646 </v>
    <v>       0.45236870       0.77819795       0.08548229 </v>
    <v>       0.20263144       0.90319665       0.03388539 </v>
    <v>       0.45502530       0.65182840       0.13627871 </v>
    <v>       0.45238546       0.77819167       0.18732091 </v>
    <v>       0.20239254       0.90194572       0.13641830 </v>
    <v>       0.45194390       0.65338319       0.23825271 </v>
    <v>       0.45237934       0.77819431       0.28917970 </v>
    <v>       0.20257440       0.90340142       0.23828598 </v>
    <v>       0.45067358       0.65403148       0.34017177 </v>
    <v>       0.45237935       0.77819314       0.39024186 </v>
    <v>       0.20240327       0.90408498       0.34027763 </v>
    <v>       0.45252591       0.90320403       0.03383702 </v>
    <v>       0.44973564       0.90455223       0.13627966 </v>
    <v>       0.45281409       0.90300679       0.23825200 </v>
    <v>       0.45408388       0.90235723       0.34017170 </v>
    <v>       0.95238310       0.02819014       0.08545562 </v>
    <v>       0.70216282       0.15316894       0.03388150 </v>
    <v>       0.95236749       0.02819988       0.18735122 </v>
    <v>       0.70235712       0.15443862       0.13640987 </v>
    <v>       0.95237855       0.02819439       0.28914093 </v>
    <v>       0.70218590       0.15297987       0.23828790 </v>
    <v>       0.95238030       0.02819260       0.39017722 </v>
    <v>       0.70235393       0.15230442       0.34027782 </v>
    <v>       0.95224245       0.15316785       0.03384649 </v>
    <v>       0.95236961       0.27819700       0.08548230 </v>
    <v>       0.70263153       0.40319651       0.03388541 </v>
    <v>       0.95502539       0.15182805       0.13627874 </v>
    <v>       0.95238688       0.27819038       0.18732092 </v>
    <v>       0.70239279       0.40194518       0.13641844 </v>
    <v>       0.95194487       0.15338254       0.23825287 </v>
    <v>       0.95238034       0.27819337       0.28917982 </v>
    <v>       0.70257483       0.40340122       0.23828602 </v>
    <v>       0.95067362       0.15403146       0.34017176 </v>
    <v>       0.95237949       0.27819300       0.39024187 </v>
    <v>       0.70240334       0.40408487       0.34027769 </v>
    <v>       0.95252608       0.40320396       0.03383703 </v>
    <v>       0.95237472       0.52819309       0.08545491 </v>
    <v>       0.70216112       0.65316917       0.03388183 </v>
    <v>       0.94973331       0.40455325       0.13627922 </v>
    <v>       0.95238265       0.52819082       0.18734984 </v>
    <v>       0.70235599       0.65443944       0.13640950 </v>
    <v>       0.95281427       0.40300649       0.23825256 </v>
    <v>       0.95237839       0.52819454       0.28914073 </v>
    <v>       0.70218675       0.65297966       0.23828796 </v>
    <v>       0.95408424       0.40235703       0.34017176 </v>
    <v>       0.95238042       0.52819255       0.39017718 </v>
    <v>       0.70235401       0.65230443       0.34027782 </v>
    <v>       0.95224122       0.65316808       0.03384614 </v>
    <v>       0.95238282       0.77819047       0.08548102 </v>
    <v>       0.70263160       0.90319617       0.03388517 </v>
    <v>       0.95501449       0.65183565       0.13627928 </v>
    <v>       0.95237770       0.77819463       0.18732015 </v>
    <v>       0.70239636       0.90194921       0.13641063 </v>
    <v>       0.95194442       0.65338283       0.23825291 </v>
    <v>       0.95237857       0.77819433       0.28917970 </v>
    <v>       0.70257010       0.90340996       0.23828688 </v>
    <v>       0.95067336       0.65403153       0.34017177 </v>
    <v>       0.95237944       0.77819306       0.39024187 </v>
    <v>       0.70240311       0.90408501       0.34027757 </v>
    <v>       0.95252662       0.90320388       0.03383693 </v>
    <v>       0.94973334       0.90455328       0.13627915 </v>
    <v>       0.95281382       0.90300647       0.23825275 </v>
    <v>       0.95408369       0.90235724       0.34017180 </v>
    <v>       0.19650821       0.05584649       0.50189025 </v>
    <v>       0.19609966       0.22294976       0.45663173 </v>
    <v>       0.19659190       0.05577125       0.59417460 </v>
    <v>       0.19667559       0.22243015       0.54612254 </v>
    <v>       0.19617508       0.05604451       0.68801744 </v>
    <v>       0.19634297       0.22260662       0.64175938 </v>
    <v>       0.19609023       0.05617897       0.78108799 </v>
    <v>       0.19613379       0.22277160       0.73488010 </v>
    <v>       0.19621893       0.05600792       0.87663884 </v>
    <v>       0.19632969       0.22275413       0.82869156 </v>
    <v>       0.19609490       0.05613371       0.96601986 </v>
    <v>       0.19632769       0.22256505       0.92091747 </v>
    <v>       0.52913080       0.05493661       0.50209615 </v>
    <v>       0.53019593       0.22178629       0.45669784 </v>
    <v>       0.52863531       0.05509525       0.59441365 </v>
    <v>       0.53065393       0.22056179       0.54673112 </v>
    <v>       0.52998661       0.05410255       0.68768252 </v>
    <v>       0.52973333       0.22111437       0.64130397 </v>
    <v>       0.52893241       0.05494423       0.78148882 </v>
    <v>       0.52996363       0.22071993       0.73520057 </v>
    <v>       0.53040394       0.05400433       0.87608122 </v>
    <v>       0.52877800       0.22147428       0.82833761 </v>
    <v>       0.53051987       0.05505132       0.96612650 </v>
    <v>       0.52946491       0.22143017       0.92062791 </v>
    <v>       0.19650018       0.38917563       0.50188017 </v>
    <v>       0.19599485       0.55646784       0.45667097 </v>
    <v>       0.19644069       0.38922279       0.59419814 </v>
    <v>       0.19668037       0.55578873       0.54612070 </v>
    <v>       0.19623863       0.38937817       0.68797042 </v>
    <v>       0.19646519       0.55591029       0.64176416 </v>
    <v>       0.19611384       0.38947776       0.78110362 </v>
    <v>       0.19614530       0.55615951       0.73484839 </v>
    <v>       0.19634573       0.38925695       0.87660017 </v>
    <v>       0.19610153       0.55620323       0.82872483 </v>
    <v>       0.19639894       0.38922659       0.96604182 </v>
    <v>       0.19638455       0.55589021       0.92093517 </v>
    <v>       0.86380573       0.05694935       0.50208614 </v>
    <v>       0.86219032       0.22352306       0.45672357 </v>
    <v>       0.86446483       0.05647852       0.59440903 </v>
    <v>       0.86225301       0.22433869       0.54675908 </v>
    <v>       0.86239591       0.05780619       0.68766064 </v>
    <v>       0.86321560       0.22377884       0.64133504 </v>
    <v>       0.86300039       0.05705879       0.78158548 </v>
    <v>       0.86235033       0.22452521       0.73524283 </v>
    <v>       0.86236556       0.05762761       0.87608151 </v>
    <v>       0.86426156       0.22330413       0.82846709 </v>
    <v>       0.86251032       0.05655588       0.96616307 </v>
    <v>       0.86311110       0.22366741       0.92075110 </v>
    <v>       0.52910608       0.38826729       0.50210197 </v>
    <v>       0.53077863       0.55481261       0.45675755 </v>
    <v>       0.52868162       0.38842251       0.59441817 </v>
    <v>       0.53096304       0.55384283       0.54668800 </v>
    <v>       0.53013257       0.38734763       0.68761223 </v>
    <v>       0.53013299       0.55464094       0.64136568 </v>
    <v>       0.52927558       0.38798016       0.78156350 </v>
    <v>       0.53018867       0.55384242       0.73518313 </v>
    <v>       0.53042629       0.38744868       0.87610562 </v>
    <v>       0.52874268       0.55484130       0.82842959 </v>
    <v>       0.53035185       0.38848626       0.96612611 </v>
    <v>       0.52928327       0.55482823       0.92073712 </v>
    <v>       0.19646523       0.72259497       0.50190674 </v>
    <v>       0.19591036       0.88971445       0.45667570 </v>
    <v>       0.19673972       0.72234278       0.59419119 </v>
    <v>       0.19670619       0.88900084       0.54615678 </v>
    <v>       0.19621027       0.72263335       0.68799601 </v>
    <v>       0.19656279       0.88911000       0.64179970 </v>
    <v>       0.19625060       0.72282908       0.78108237 </v>
    <v>       0.19625696       0.88946955       0.73489111 </v>
    <v>       0.19654602       0.72263252       0.87666973 </v>
    <v>       0.19621302       0.88946292       0.82868505 </v>
    <v>       0.19605340       0.72268553       0.96603569 </v>
    <v>       0.19642907       0.88919902       0.92090664 </v>
    <v>       0.86390479       0.39019249       0.50211213 </v>
    <v>       0.86227775       0.55692185       0.45672860 </v>
    <v>       0.86447378       0.38998047       0.59438182 </v>
    <v>       0.86223852       0.55779055       0.54678253 </v>
    <v>       0.86266914       0.39111367       0.68766621 </v>
    <v>       0.86310204       0.55727835       0.64134375 </v>
    <v>       0.86300932       0.39015997       0.78161290 </v>
    <v>       0.86239098       0.55783078       0.73523195 </v>
    <v>       0.86255427       0.39081417       0.87613848 </v>
    <v>       0.86417408       0.55661774       0.82844471 </v>
    <v>       0.86240831       0.39013810       0.96612418 </v>
    <v>       0.86338950       0.55695805       0.92072242 </v>
    <v>       0.52928316       0.72165518       0.50213919 </v>
    <v>       0.53043642       0.88829044       0.45670925 </v>
    <v>       0.52879995       0.72167787       0.59441054 </v>
    <v>       0.53086533       0.88721556       0.54670024 </v>
    <v>       0.52981728       0.72092447       0.68770761 </v>
    <v>       0.52979559       0.88787412       0.64133911 </v>
    <v>       0.52929464       0.72133768       0.78156040 </v>
    <v>       0.53012795       0.88730714       0.73516325 </v>
    <v>       0.53037163       0.72084957       0.87607679 </v>
    <v>       0.52837033       0.88841839       0.82836385 </v>
    <v>       0.53043964       0.72171589       0.96614427 </v>
    <v>       0.52931415       0.88815439       0.92070699 </v>
    <v>       0.86383135       0.72363013       0.50210623 </v>
    <v>       0.86223183       0.89016787       0.45672677 </v>
    <v>       0.86440310       0.72331152       0.59441485 </v>
    <v>       0.86209489       0.89102896       0.54678617 </v>
    <v>       0.86255028       0.72451267       0.68768744 </v>
    <v>       0.86317817       0.89052587       0.64133789 </v>
    <v>       0.86288679       0.72369741       0.78158113 </v>
    <v>       0.86249488       0.89100212       0.73525112 </v>
    <v>       0.86222036       0.72433126       0.87611736 </v>
    <v>       0.86414647       0.88997587       0.82845099 </v>
    <v>       0.86251738       0.72330030       0.96615891 </v>
    <v>       0.86300371       0.89054480       0.92071513 </v>
    <v>       0.45241106       0.02817322       0.03489963 </v>
    <v>       0.45237844       0.02819199       0.13642685 </v>
    <v>       0.45237872       0.02819455       0.23826700 </v>
    <v>       0.45237954       0.02819340       0.34012931 </v>
    <v>       0.45241202       0.27817398       0.03490584 </v>
    <v>       0.45237733       0.27819306       0.13643003 </v>
    <v>       0.45237899       0.27819396       0.23826097 </v>
    <v>       0.45237948       0.27819373       0.34017440 </v>
    <v>       0.45241159       0.52817308       0.03490009 </v>
    <v>       0.45237660       0.52819204       0.13642787 </v>
    <v>       0.45237892       0.52819406       0.23826787 </v>
    <v>       0.45237944       0.52819346       0.34012948 </v>
    <v>       0.45241106       0.77817471       0.03490644 </v>
    <v>       0.45237453       0.77819378       0.13643084 </v>
    <v>       0.45237933       0.77819443       0.23826119 </v>
    <v>       0.45237908       0.77819400       0.34017438 </v>
    <v>       0.95241160       0.02817307       0.03490007 </v>
    <v>       0.95237667       0.02819196       0.13642786 </v>
    <v>       0.95237877       0.02819420       0.23826787 </v>
    <v>       0.95237947       0.02819341       0.34012948 </v>
    <v>       0.95241107       0.27817468       0.03490646 </v>
    <v>       0.95237477       0.27819338       0.13643087 </v>
    <v>       0.95238012       0.27819385       0.23826124 </v>
    <v>       0.95237909       0.27819372       0.34017444 </v>
    <v>       0.95241104       0.52817324       0.03489973 </v>
    <v>       0.95237823       0.52819218       0.13642695 </v>
    <v>       0.95237946       0.52819378       0.23826734 </v>
    <v>       0.95237903       0.52819389       0.34012950 </v>
    <v>       0.95241197       0.77817401       0.03490582 </v>
    <v>       0.95237693       0.77819347       0.13642999 </v>
    <v>       0.95237887       0.77819451       0.23826092 </v>
    <v>       0.95237901       0.77819400       0.34017439 </v>
   </varray>
  </structure>
  <varray name="primitive_index" >
   <v type="int" >        1 </v>
   <v type="int" >        2 </v>
   <v type="int" >        3 </v>
   <v type="int" >        4 </v>
   <v type="int" >        5 </v>
   <v type="int" >        6 </v>
   <v type="int" >        7 </v>
   <v type="int" >        8 </v>
   <v type="int" >        9 </v>
   <v type="int" >       10 </v>
   <v type="int" >       11 </v>
   <v type="int" >       12 </v>
   <v type="int" >       13 </v>
   <v type="int" >       14 </v>
   <v type="int" >       15 </v>
   <v type="int" >       16 </v>
   <v type="int" >       17 </v>
   <v type="int" >       18 </v>
   <v type="int" >       19 </v>
   <v type="int" >       20 </v>
   <v type="int" >       21 </v>
   <v type="int" >       22 </v>
   <v type="int" >       23 </v>
   <v type="int" >       24 </v>
   <v type="int" >       25 </v>
   <v type="int" >       26 </v>
   <v type="int" >       27 </v>
   <v type="int" >       28 </v>
   <v type="int" >       29 </v>
   <v type="int" >       30 </v>
   <v type="int" >       31 </v>
   <v type="int" >       32 </v>
   <v type="int" >       33 </v>
   <v type="int" >       34 </v>
   <v type="int" >       35 </v>
   <v type="int" >       36 </v>
   <v type="int" >       37 </v>
   <v type="int" >       38 </v>
   <v type="int" >       39 </v>
   <v type="int" >       40 </v>
   <v type="int" >       41 </v>
   <v type="int" >       42 </v>
   <v type="int" >       43 </v>
   <v type="int" >       44 </v>
   <v type="int" >       45 </v>
   <v type="int" >       46 </v>
   <v type="int" >       47 </v>
   <v type="int" >       48 </v>
   <v type="int" >       49 </v>
   <v type="int" >       50 </v>
   <v type="int" >       51 </v>
   <v type="int" >       52 </v>
   <v type="int" >       53 </v>
   <v type="int" >       54 </v>
   <v type="int" >       55 </v>
   <v type="int" >       56 </v>
   <v type="int" >       57 </v>
   <v type="int" >       58 </v>
   <v type="int" >       59 </v>
   <v type="int" >       60 </v>
   <v type="int" >       61 </v>
   <v type="int" >       62 </v>
   <v type="int" >       63 </v>
   <v type="int" >       64 </v>
   <v type="int" >       65 </v>
   <v type="int" >       66 </v>
   <v type="int" >       67 </v>
   <v type="int" >       68 </v>
   <v type="int" >       69 </v>
   <v type="int" >       70 </v>
   <v type="int" >       71 </v>
   <v type="int" >       72 </v>
   <v type="int" >       73 </v>
   <v type="int" >       74 </v>
   <v type="int" >       75 </v>
   <v type="int" >       76 </v>
   <v type="int" >       77 </v>
   <v type="int" >       78 </v>
   <v type="int" >       79 </v>
   <v type="int" >       80 </v>
   <v type="int" >       81 </v>
   <v type="int" >       82 </v>
   <v type="int" >       83 </v>
   <v type="int" >       84 </v>
   <v type="int" >       85 </v>
   <v type="int" >       86 </v>
   <v type="int" >       87 </v>
   <v type="int" >       88 </v>
   <v type="int" >       89 </v>
   <v type="int" >       90 </v>
   <v type="int" >       91 </v>
   <v type="int" >       92 </v>
   <v type="int" >       93 </v>
   <v type="int" >       94 </v>
   <v type="int" >       95 </v>
   <v type="int" >       96 </v>
   <v type="int" >       97 </v>
   <v type="int" >       98 </v>
   <v type="int" >       99 </v>
   <v type="int" >      100 </v>
   <v type="int" >      101 </v>
   <v type="int" >      102 </v>
   <v type="int" >      103 </v>
   <v type="int" >      104 </v>
   <v type="int" >      105 </v>
   <v type="int" >      106 </v>
   <v type="int" >      107 </v>
   <v type="int" >      108 </v>
   <v type="int" >      109 </v>
   <v type="int" >      110 </v>
   <v type="int" >      111 </v>
   <v type="int" >      112 </v>
   <v type="int" >      113 </v>
   <v type="int" >      114 </v>
   <v type="int" >      115 </v>
   <v type="int" >      116 </v>
   <v type="int" >      117 </v>
   <v type="int" >      118 </v>
   <v type="int" >      119 </v>
   <v type="int" >      120 </v>
   <v type="int" >      121 </v>
   <v type="int" >      122 </v>
   <v type="int" >      123 </v>
   <v type="int" >      124 </v>
   <v type="int" >      125 </v>
   <v type="int" >      126 </v>
   <v type="int" >      127 </v>
   <v type="int" >      128 </v>
   <v type="int" >      129 </v>
   <v type="int" >      130 </v>
   <v type="int" >      131 </v>
   <v type="int" >      132 </v>
   <v type="int" >      133 </v>
   <v type="int" >      134 </v>
   <v type="int" >      135 </v>
   <v type="int" >      136 </v>
   <v type="int" >      137 </v>
   <v type="int" >      138 </v>
   <v type="int" >      139 </v>
   <v type="int" >      140 </v>
   <v type="int" >      141 </v>
   <v type="int" >      142 </v>
   <v type="int" >      143 </v>
   <v type="int" >      144 </v>
   <v type="int" >      145 </v>
   <v type="int" >      146 </v>
   <v type="int" >      147 </v>
   <v type="int" >      148 </v>
   <v type="int" >      149 </v>
   <v type="int" >      150 </v>
   <v type="int" >      151 </v>
   <v type="int" >      152 </v>
   <v type="int" >      153 </v>
   <v type="int" >      154 </v>
   <v type="int" >      155 </v>
   <v type="int" >      156 </v>
   <v type="int" >      157 </v>
   <v type="int" >      158 </v>
   <v type="int" >      159 </v>
   <v type="int" >      160 </v>
   <v type="int" >      161 </v>
   <v type="int" >      162 </v>
   <v type="int" >      163 </v>
   <v type="int" >      164 </v>
   <v type="int" >      165 </v>
   <v type="int" >      166 </v>
   <v type="int" >      167 </v>
   <v type="int" >      168 </v>
   <v type="int" >      169 </v>
   <v type="int" >      170 </v>
   <v type="int" >      171 </v>
   <v type="int" >      172 </v>
   <v type="int" >      173 </v>
   <v type="int" >      174 </v>
   <v type="int" >      175 </v>
   <v type="int" >      176 </v>
   <v type="int" >      177 </v>
   <v type="int" >      178 </v>
   <v type="int" >      179 </v>
   <v type="int" >      180 </v>
   <v type="int" >      181 </v>
   <v type="int" >      182 </v>
   <v type="int" >      183 </v>
   <v type="int" >      184 </v>
   <v type="int" >      185 </v>
   <v type="int" >      186 </v>
   <v type="int" >      187 </v>
   <v type="int" >      188 </v>
   <v type="int" >      189 </v>
   <v type="int" >      190 </v>
   <v type="int" >      191 </v>
   <v type="int" >      192 </v>
   <v type="int" >      193 </v>
   <v type="int" >      194 </v>
   <v type="int" >      195 </v>
   <v type="int" >      196 </v>
   <v type="int" >      197 </v>
   <v type="int" >      198 </v>
   <v type="int" >      199 </v>
   <v type="int" >      200 </v>
   <v type="int" >      201 </v>
   <v type="int" >      202 </v>
   <v type="int" >      203 </v>
   <v type="int" >      204 </v>
   <v type="int" >      205 </v>
   <v type="int" >      206 </v>
   <v type="int" >      207 </v>
   <v type="int" >      208 </v>
   <v type="int" >      209 </v>
   <v type="int" >      210 </v>
   <v type="int" >      211 </v>
   <v type="int" >      212 </v>
   <v type="int" >      213 </v>
   <v type="int" >      214 </v>
   <v type="int" >      215 </v>
   <v type="int" >      216 </v>
   <v type="int" >      217 </v>
   <v type="int" >      218 </v>
   <v type="int" >      219 </v>
   <v type="int" >      220 </v>
   <v type="int" >      221 </v>
   <v type="int" >      222 </v>
   <v type="int" >      223 </v>
   <v type="int" >      224 </v>
   <v type="int" >      225 </v>
   <v type="int" >      226 </v>
   <v type="int" >      227 </v>
   <v type="int" >      228 </v>
   <v type="int" >      229 </v>
   <v type="int" >      230 </v>
   <v type="int" >      231 </v>
   <v type="int" >      232 </v>
   <v type="int" >      233 </v>
   <v type="int" >      234 </v>
   <v type="int" >      235 </v>
   <v type="int" >      236 </v>
   <v type="int" >      237 </v>
   <v type="int" >      238 </v>
   <v type="int" >      239 </v>
   <v type="int" >      240 </v>
   <v type="int" >      241 </v>
   <v type="int" >      242 </v>
   <v type="int" >      243 </v>
   <v type="int" >      244 </v>
   <v type="int" >      245 </v>
   <v type="int" >      246 </v>
   <v type="int" >      247 </v>
   <v type="int" >      248 </v>
   <v type="int" >      249 </v>
   <v type="int" >      250 </v>
   <v type="int" >      251 </v>
   <v type="int" >      252 </v>
   <v type="int" >      253 </v>
   <v type="int" >      254 </v>
   <v type="int" >      255 </v>
   <v type="int" >      256 </v>
   <v type="int" >      257 </v>
   <v type="int" >      258 </v>
   <v type="int" >      259 </v>
   <v type="int" >      260 </v>
   <v type="int" >      261 </v>
   <v type="int" >      262 </v>
   <v type="int" >      263 </v>
   <v type="int" >      264 </v>
   <v type="int" >      265 </v>
   <v type="int" >      266 </v>
   <v type="int" >      267 </v>
   <v type="int" >      268 </v>
  </varray>
 </primitive_cell>
 <kpoints>
  <generation param="Gamma">
   <v type="int" name="divisions">       2        1        1 </v>
   <v name="usershift">      0.00000000       0.00000000       0.00000000 </v>
   <v name="genvec1">      0.50000000       0.00000000       0.00000000 </v>
   <v name="genvec2">      0.00000000       1.00000000       0.00000000 </v>
   <v name="genvec3">      0.00000000       0.00000000       1.00000000 </v>
   <v name="shift">      0.00000000       0.00000000       0.00000000 </v>
  </generation>
  <varray name="kpointlist" >
   <v>       0.00000000       0.00000000       0.00000000 </v>
   <v>       0.50000000       0.00000000       0.00000000 </v>
  </varray>
  <varray name="weights" >
   <v>       0.50000000 </v>
   <v>       0.50000000 </v>
  </varray>
 </kpoints>
 <parameters>
  <separator name="general" >
   <i type="string" name="SYSTEM">unknown system</i>
   <i type="logical" name="LCOMPAT"> F  </i>
  </separator>
  <separator name="electronic" >
   <i type="string" name="PREC">normal</i>
   <i name="ENMAX">    400.00000000</i>
   <i name="ENAUG">    605.39200000</i>
   <i name="EDIFF">      0.00000001</i>
   <i type="int" name="IALGO">    68</i>
   <i type="int" name="IWAVPR">    10</i>
   <i type="int" name="NBANDS">   448</i>
   <i type="int" name="NBANDSLOW">    -1</i>
   <i type="int" name="NBANDSHIGH">    -1</i>
   <i name="NELECT">    620.00000000</i>
   <i type="int" name="TURBO">     0</i>
   <i type="int" name="IRESTART">     0</i>
   <i type="int" name="NREBOOT">     0</i>
   <i type="int" name="NMIN">     0</i>
   <i name="EREF">      0.00000000</i>
   <separator name="electronic smearing" >
    <i type="int" name="ISMEAR">     0</i>
    <i name="SIGMA">      0.10000000</i>
    <i name="KSPACING">      0.50000000</i>
    <i type="logical" name="KGAMMA"> T  </i>
    <i type="logical" name="KBLOWUP"> T  </i>
   </separator>
   <separator name="electronic projectors" >
    <i type="logical" name="LREAL"> T  </i>
    <v name="ROPT">     -0.00050000     -0.00050000     -0.00050000</v>
    <i type="int" name="LMAXPAW">  -100</i>
    <i type="int" name="LMAXMIX">     6</i>
    <i type="logical" name="NLSPLINE"> F  </i>
   </separator>
   <separator name="electronic startup" >
    <i type="int" name="ISTART">     0</i>
    <i type="int" name="ICHARG">     2</i>
    <i type="int" name="INIWAV">     1</i>
   </separator>
   <separator name="electronic spin" >
    <i type="int" name="ISPIN">     1</i>
    <i type="logical" name="LNONCOLLINEAR"> F  </i>
    <v name="MAGMOM">      1.00000000      1.00000000      1.00000000      1.00000000      1.00000000      1.00000000      1.00000000      1.00000000      1.00000000      1.00000000      1.00000000      1.00000000      1.00000000      1.00000000      1.00000000      1.00000000      1.00000000      1.00000000      1.00000000      1.00000000
      1.00000000      1.00000000      1.00000000      1.00000000      1.00000000      1.00000000      1.00000000      1.00000000      1.00000000      1.00000000      1.00000000      1.00000000      1.00000000      1.00000000      1.00000000      1.00000000      1.00000000      1.00000000      1.00000000      1.00000000
      1.00000000      1.00000000      1.00000000      1.00000000      1.00000000      1.00000000      1.00000000      1.00000000      1.00000000      1.00000000      1.00000000      1.00000000      1.00000000      1.00000000      1.00000000      1.00000000      1.00000000      1.00000000      1.00000000      1.00000000
      1.00000000      1.00000000      1.00000000      1.00000000      1.00000000      1.00000000      1.00000000      1.00000000      1.00000000      1.00000000      1.00000000      1.00000000      1.00000000      1.00000000      1.00000000      1.00000000      1.00000000      1.00000000      1.00000000      1.00000000
      1.00000000      1.00000000      1.00000000      1.00000000      1.00000000      1.00000000      1.00000000      1.00000000      1.00000000      1.00000000      1.00000000      1.00000000      1.00000000      1.00000000      1.00000000      1.00000000      1.00000000      1.00000000      1.00000000      1.00000000
      1.00000000      1.00000000      1.00000000      1.00000000      1.00000000      1.00000000      1.00000000      1.00000000      1.00000000      1.00000000      1.00000000      1.00000000      1.00000000      1.00000000      1.00000000      1.00000000      1.00000000      1.00000000      1.00000000      1.00000000
      1.00000000      1.00000000      1.00000000      1.00000000      1.00000000      1.00000000      1.00000000      1.00000000      1.00000000      1.00000000      1.00000000      1.00000000      1.00000000      1.00000000      1.00000000      1.00000000      1.00000000      1.00000000      1.00000000      1.00000000
      1.00000000      1.00000000      1.00000000      1.00000000      1.00000000      1.00000000      1.00000000      1.00000000      1.00000000      1.00000000      1.00000000      1.00000000      1.00000000      1.00000000      1.00000000      1.00000000      1.00000000      1.00000000      1.00000000      1.00000000
      1.00000000      1.00000000      1.00000000      1.00000000      1.00000000      1.00000000      1.00000000      1.00000000      1.00000000      1.00000000      1.00000000      1.00000000      1.00000000      1.00000000      1.00000000      1.00000000      1.00000000      1.00000000      1.00000000      1.00000000
      1.00000000      1.00000000      1.00000000      1.00000000      1.00000000      1.00000000      1.00000000      1.00000000      1.00000000      1.00000000      1.00000000      1.00000000      1.00000000      1.00000000      1.00000000      1.00000000      1.00000000      1.00000000      1.00000000      1.00000000
      1.00000000      1.00000000      1.00000000      1.00000000      1.00000000      1.00000000      1.00000000      1.00000000      1.00000000      1.00000000      1.00000000      1.00000000      1.00000000      1.00000000      1.00000000      1.00000000      1.00000000      1.00000000      1.00000000      1.00000000
      1.00000000      1.00000000      1.00000000      1.00000000      1.00000000      1.00000000      1.00000000      1.00000000      1.00000000      1.00000000      1.00000000      1.00000000      1.00000000      1.00000000      1.00000000      1.00000000      1.00000000      1.00000000      1.00000000      1.00000000
      1.00000000      1.00000000      1.00000000      1.00000000      1.00000000      1.00000000      1.00000000      1.00000000      1.00000000      1.00000000      1.00000000      1.00000000      1.00000000      1.00000000      1.00000000      1.00000000      1.00000000      1.00000000      1.00000000      1.00000000
      1.00000000      1.00000000      1.00000000      1.00000000      1.00000000      1.00000000      1.00000000      1.00000000</v>
    <i name="NUPDOWN">     -1.00000000</i>
    <i type="logical" name="LSORBIT"> F  </i>
    <v name="SAXIS">      0.00000000      0.00000000      1.00000000</v>
    <i type="logical" name="LSPIRAL"> F  </i>
    <v name="QSPIRAL">      0.00000000      0.00000000      0.00000000</v>
    <i type="logical" name="LZEROZ"> F  </i>
   </separator>
   <separator name="electronic exchange-correlation" >
    <i type="logical" name="LASPH"> T  </i>
    <i type="logical" name="LMETAGGA"> F  </i>
   </separator>
   <separator name="electronic convergence" >
    <i type="int" name="NELM">   150</i>
    <i type="int" name="NELMDL">     0</i>
    <i type="int" name="NELMIN">     2</i>
    <i name="ENINI">    400.00000000</i>
    <separator name="electronic convergence detail" >
     <i type="logical" name="LDIAG"> T  </i>
     <i type="logical" name="LSUBROT"> F  </i>
     <i name="WEIMIN">      0.00000000</i>
     <i name="EBREAK">      0.00000000</i>
     <i name="DEPER">      0.30000000</i>
     <i type="int" name="NRMM">     4</i>
     <i name="TIME">      0.40000000</i>
    </separator>
   </separator>
   <separator name="electronic mixer" >
    <i name="AMIX">      0.40000000</i>
    <i name="BMIX">      1.00000000</i>
    <i name="AMIN">      0.01000000</i>
    <i name="AMIX_MAG">      1.60000000</i>
    <i name="BMIX_MAG">      1.00000000</i>
    <separator name="electronic mixer details" >
     <i type="int" name="IMIX">     4</i>
     <i type="logical" name="MIXFIRST"> F  </i>
     <i type="int" name="MAXMIX">   -45</i>
     <i name="WC">    100.00000000</i>
     <i type="int" name="INIMIX">     1</i>
     <i type="int" name="MIXPRE">     1</i>
     <i type="int" name="MREMOVE">     5</i>
    </separator>
   </separator>
   <separator name="electronic dipolcorrection" >
    <i type="logical" name="LDIPOL"> F  </i>
    <i type="logical" name="LMONO"> F  </i>
    <i type="int" name="IDIPOL">     0</i>
    <i name="EPSILON">      1.00000000</i>
    <v name="DIPOL">   -100.00000000   -100.00000000   -100.00000000</v>
    <i name="EFIELD">      0.00000000</i>
   </separator>
  </separator>
  <separator name="grids" >
   <i type="int" name="NGX">    64</i>
   <i type="int" name="NGY">    90</i>
   <i type="int" name="NGZ">   224</i>
   <i type="int" name="NGXF">   128</i>
   <i type="int" name="NGYF">   180</i>
   <i type="int" name="NGZF">   448</i>
   <i type="logical" name="ADDGRID"> F  </i>
  </separator>
  <separator name="ionic" >
   <i type="int" name="NSW">     0</i>
   <i type="int" name="IBRION">    -1</i>
   <i type="int" name="MDALGO">     0</i>
   <i type="int" name="ISIF">     3</i>
   <i name="PSTRESS">      0.00000000</i>
   <i name="EDIFFG">     -0.01000000</i>
   <i type="int" name="NFREE">     0</i>
   <i name="POTIM">      0.50000000</i>
   <i name="SMASS">     -3.00000000</i>
   <i name="SCALEE">      1.00000000</i>
  </separator>
  <separator name="ionic md" >
   <i name="TEBEG">      0.00010000</i>
   <i name="TEEND">      0.00010000</i>
   <i type="int" name="NBLOCK">     1</i>
   <i type="int" name="KBLOCK">     1</i>
   <i type="int" name="NPACO">   256</i>
   <i name="APACO">     16.00000000</i>
  </separator>
  <separator name="symmetry" >
   <i type="int" name="ISYM">     2</i>
   <i name="SYMPREC">      0.00001000</i>
  </separator>
  <separator name="dos" >
   <i type="int" name="LORBIT">     0</i>
   <v name="RWIGS">     -1.00000000     -1.00000000     -1.00000000</v>
   <i type="int" name="NEDOS">   301</i>
   <i name="EMIN">     10.00000000</i>
   <i name="EMAX">    -10.00000000</i>
   <i name="EFERMI">      0.00000000</i>
  </separator>
  <separator name="writing" >
   <i type="int" name="NWRITE">     1</i>
   <i type="logical" name="LWAVE"> F  </i>
   <i type="logical" name="LDOWNSAMPLE"> F  </i>
   <i type="logical" name="LCHARG"> F  </i>
   <i type="logical" name="LPARD"> F  </i>
   <i type="logical" name="LVTOT"> F  </i>
   <i type="logical" name="LVHAR"> F  </i>
   <i type="logical" name="LELF"> F  </i>
   <i type="logical" name="LOPTICS"> F  </i>
   <v name="STM">      0.00000000      0.00000000      0.00000000      0.00000000      0.00000000      0.00000000      0.00000000</v>
  </separator>
  <separator name="performance" >
   <i type="int" name="NPAR">     8</i>
   <i type="int" name="NSIM">     4</i>
   <i type="int" name="NBLK">    -1</i>
   <i type="logical" name="LPLANE"> T  </i>
   <i type="logical" name="LSCALAPACK"> T  </i>
   <i type="logical" name="LSCAAWARE"> F  </i>
   <i type="logical" name="LSCALU"> F  </i>
   <i type="logical" name="LASYNC"> F  </i>
   <i type="logical" name="LORBITALREAL"> F  </i>
  </separator>
  <separator name="miscellaneous" >
   <i type="int" name="IDIOT">     3</i>
   <i type="int" name="PHON_NSTRUCT">    -1</i>
   <i type="logical" name="LMUSIC"> F  </i>
   <v name="POMASS">     35.45300000     22.99000000     16.00000000</v>
   <v name="DARWINR">      0.00000000      0.00000000      0.00000000</v>
   <v name="DARWINV">      1.00000000      1.00000000      1.00000000</v>
   <i type="logical" name="LCORR"> T  </i>
  </separator>
  <i type="logical" name="GGA_COMPAT"> T  </i>
  <i type="logical" name="LBERRY"> F  </i>
  <i type="int" name="ICORELEVEL">     0</i>
  <i type="logical" name="LDAU"> F  </i>
  <i type="int" name="I_CONSTRAINED_M">     0</i>
  <separator name="electronic exchange-correlation" >
   <i type="string" name="GGA">PE</i>
   <i type="int" name="VOSKOWN">     0</i>
   <i type="logical" name="LHFCALC"> F  </i>
   <i type="string" name="PRECFOCK"></i>
   <i type="logical" name="LSYMGRAD"> F  </i>
   <i type="logical" name="LHFONE"> F  </i>
   <i type="logical" name="LRHFCALC"> F  </i>
   <i type="logical" name="LTHOMAS"> F  </i>
   <i type="logical" name="LMODELHF"> F  </i>
   <i type="logical" name="LFOCKACE"> F  </i>
   <i name="ENCUT4O">     -1.00000000</i>
   <i type="int" name="EXXOEP">     0</i>
   <i type="int" name="FOURORBIT">     0</i>
   <i name="AEXX">      0.00000000</i>
   <i name="HFALPHA">      0.00000000</i>
   <i name="MCALPHA">      0.00000000</i>
   <i name="ALDAX">      1.00000000</i>
   <i name="AGGAX">      1.00000000</i>
   <i name="ALDAC">      1.00000000</i>
   <i name="AGGAC">      1.00000000</i>
   <i type="int" name="NKREDX">     1</i>
   <i type="int" name="NKREDY">     1</i>
   <i type="int" name="NKREDZ">     1</i>
   <i type="logical" name="SHIFTRED"> F  </i>
   <i type="logical" name="ODDONLY"> F  </i>
   <i type="logical" name="EVENONLY"> F  </i>
   <i type="int" name="LMAXFOCK">     0</i>
   <i type="int" name="NMAXFOCKAE">     0</i>
   <i type="logical" name="LFOCKAEDFT"> F  </i>
   <i name="HFSCREEN">      0.00000000</i>
   <i name="HFSCREENC">      0.00000000</i>
   <i type="int" name="NBANDSGWLOW">     0</i>
  </separator>
  <separator name="vdW DFT" >
   <i type="logical" name="LUSE_VDW"> F  </i>
   <i name="Zab_VDW">     -0.84910000</i>
   <i name="PARAM1">      0.12340000</i>
   <i name="PARAM2">      1.00000000</i>
   <i name="PARAM3">      0.00000000</i>
  </separator>
  <separator name="model GW" >
   <i type="int" name="MODEL_GW">     0</i>
   <i name="MODEL_EPS0">     15.74858671</i>
   <i name="MODEL_ALPHA">      1.00000000</i>
  </separator>
  <separator name="linear response parameters" >
   <i type="logical" name="LEPSILON"> F  </i>
   <i type="logical" name="LRPA"> F  </i>
   <i type="logical" name="LNABLA"> F  </i>
   <i type="logical" name="LVEL"> F  </i>
   <i type="int" name="KINTER">     0</i>
   <i name="CSHIFT">      0.10000000</i>
   <i name="OMEGAMAX">     -1.00000000</i>
   <i name="DEG_THRESHOLD">      0.00200000</i>
   <i name="RTIME">     -0.10000000</i>
   <i name="WPLASMAI">      0.00000000</i>
   <v name="DFIELD">      0.00000000      0.00000000      0.00000000</v>
   <v name="WPLASMA">      0.00000000      0.00000000      0.00000000      0.00000000      0.00000000      0.00000000      0.00000000      0.00000000      0.00000000</v>
  </separator>
  <separator name="orbital magnetization" >
   <i type="logical" name="NUCIND"> F  </i>
   <v name="MAGPOS">      0.00000000      0.00000000      0.00000000</v>
   <i type="logical" name="LNICSALL"> T  </i>
   <i type="logical" name="ORBITALMAG"> F  </i>
   <i type="logical" name="LMAGBLOCH"> F  </i>
   <i type="logical" name="LCHIMAG"> F  </i>
   <i type="logical" name="LGAUGE"> T  </i>
   <i type="int" name="MAGATOM">     0</i>
   <v name="MAGDIPOL">      0.00000000      0.00000000      0.00000000</v>
   <v name="AVECCONST">      0.00000000      0.00000000      0.00000000</v>
  </separator>
  <separator name="response functions" >
   <i type="logical" name="LFINITE_TEMPERATURE"> F  </i>
   <i type="logical" name="LADDER"> F  </i>
   <i type="logical" name="LRPAFORCE"> F  </i>
   <i type="logical" name="LFXC"> F  </i>
   <i type="logical" name="LHARTREE"> T  </i>
   <i type="int" name="IBSE">     0</i>
   <v type="int" name="KPOINT">    -1     0     0     0</v>
   <i type="logical" name="LTCTC"> F  </i>
   <i type="logical" name="LTCTE"> F  </i>
   <i type="logical" name="LTETE"> F  </i>
   <i type="logical" name="LTRIPLET"> F  </i>
   <i type="logical" name="LFXCEPS"> F  </i>
   <i type="logical" name="LFXHEG"> F  </i>
   <i type="int" name="NATURALO">     2</i>
   <i type="logical" name="LHOLEGF"> F  </i>
   <i type="logical" name="L2ORDER"> F  </i>
   <i type="logical" name="LDMP1"> F  </i>
   <i type="logical" name="LMP2LT"> F  </i>
   <i type="logical" name="LSMP2LT"> F  </i>
   <i type="logical" name="LGWLF"> F  </i>
   <i name="ENCUTGW">     -2.00000000</i>
   <i name="ENCUTGWSOFT">     -2.00000000</i>
   <i name="ENCUTLF">     -1.00000000</i>
   <i type="logical" name="LESF_SPLINES"> F  </i>
   <i type="int" name="LMAXMP2">    -1</i>
   <i name="SCISSOR">      0.00000000</i>
   <i type="int" name="NOMEGA">     0</i>
   <i type="int" name="NOMEGAR">     0</i>
   <i type="int" name="NBANDSGW">    -1</i>
   <i type="int" name="NBANDSO">    -1</i>
   <i type="int" name="NBANDSV">    -1</i>
   <i type="int" name="NELM">   150</i>
   <i type="int" name="NELMHF">     1</i>
   <i type="int" name="DIM">     3</i>
   <i type="int" name="IESPILON">     4</i>
   <i type="int" name="ANTIRES">     0</i>
   <i name="OMEGAMAX">    -30.00000000</i>
   <i name="OMEGAMIN">    -30.00000000</i>
   <i name="OMEGATL">   -200.00000000</i>
   <i type="int" name="OMEGAGRID">     0</i>
   <i name="CSHIFT">     -0.10000000</i>
   <i type="logical" name="LSELFENERGY"> F  </i>
   <i type="logical" name="LSPECTRAL"> F  </i>
   <i type="logical" name="LSPECTRALGW"> F  </i>
   <i type="logical" name="LSINGLES"> F  </i>
   <i type="logical" name="LFERMIGW"> F  </i>
   <i type="logical" name="ODDONLYGW"> F  </i>
   <i type="logical" name="EVENONLYGW"> F  </i>
   <i type="int" name="NKREDLFX">     1</i>
   <i type="int" name="NKREDLFY">     1</i>
   <i type="int" name="NKREDLFZ">     1</i>
   <i type="int" name="MAXMEM">  2800</i>
   <i type="int" name="TELESCOPE">     0</i>
   <i type="int" name="NTAUPAR">    -1</i>
   <i type="int" name="NOMEGAPAR">    -1</i>
   <i name="DAMP_NEWTON">      0.80000001</i>
   <i name="LAMBDA">      1.00000000</i>
  </separator>
  <separator name="External order field" >
   <i name="OFIELD_KAPPA">      0.00000000</i>
   <v name="OFIELD_K">      0.00000000      0.00000000      0.00000000</v>
   <i name="OFIELD_Q6_NEAR">      0.00000000</i>
   <i name="OFIELD_Q6_FAR">      0.00000000</i>
   <i name="OFIELD_A">      0.00000000</i>
  </separator>
 </parameters>
 <atominfo>
  <atoms>     268 </atoms>
  <types>       3 </types>
  <array name="atoms" >
   <dimension dim="1">ion</dimension>
   <field type="string">element</field>
   <field type="int">atomtype</field>
   <set>
    <rc><c>Cl</c><c>   1</c></rc>
    <rc><c>Cl</c><c>   1</c></rc>
    <rc><c>Cl</c><c>   1</c></rc>
    <rc><c>Cl</c><c>   1</c></rc>
    <rc><c>Cl</c><c>   1</c></rc>
    <rc><c>Cl</c><c>   1</c></rc>
    <rc><c>Cl</c><c>   1</c></rc>
    <rc><c>Cl</c><c>   1</c></rc>
    <rc><c>Cl</c><c>   1</c></rc>
    <rc><c>Cl</c><c>   1</c></rc>
    <rc><c>Cl</c><c>   1</c></rc>
    <rc><c>Cl</c><c>   1</c></rc>
    <rc><c>Cl</c><c>   1</c></rc>
    <rc><c>Cl</c><c>   1</c></rc>
    <rc><c>Cl</c><c>   1</c></rc>
    <rc><c>Cl</c><c>   1</c></rc>
    <rc><c>Cl</c><c>   1</c></rc>
    <rc><c>Cl</c><c>   1</c></rc>
    <rc><c>Cl</c><c>   1</c></rc>
    <rc><c>Cl</c><c>   1</c></rc>
    <rc><c>Cl</c><c>   1</c></rc>
    <rc><c>Cl</c><c>   1</c></rc>
    <rc><c>Cl</c><c>   1</c></rc>
    <rc><c>Cl</c><c>   1</c></rc>
    <rc><c>Cl</c><c>   1</c></rc>
    <rc><c>Cl</c><c>   1</c></rc>
    <rc><c>Cl</c><c>   1</c></rc>
    <rc><c>Cl</c><c>   1</c></rc>
    <rc><c>Cl</c><c>   1</c></rc>
    <rc><c>Cl</c><c>   1</c></rc>
    <rc><c>Cl</c><c>   1</c></rc>
    <rc><c>Cl</c><c>   1</c></rc>
    <rc><c>Na</c><c>   2</c></rc>
    <rc><c>Na</c><c>   2</c></rc>
    <rc><c>Na</c><c>   2</c></rc>
    <rc><c>Na</c><c>   2</c></rc>
    <rc><c>Na</c><c>   2</c></rc>
    <rc><c>Na</c><c>   2</c></rc>
    <rc><c>Na</c><c>   2</c></rc>
    <rc><c>Na</c><c>   2</c></rc>
    <rc><c>Na</c><c>   2</c></rc>
    <rc><c>Na</c><c>   2</c></rc>
    <rc><c>Na</c><c>   2</c></rc>
    <rc><c>Na</c><c>   2</c></rc>
    <rc><c>Na</c><c>   2</c></rc>
    <rc><c>Na</c><c>   2</c></rc>
    <rc><c>Na</c><c>   2</c></rc>
    <rc><c>Na</c><c>   2</c></rc>
    <rc><c>Na</c><c>   2</c></rc>
    <rc><c>Na</c><c>   2</c></rc>
    <rc><c>Na</c><c>   2</c></rc>
    <rc><c>Na</c><c>   2</c></rc>
    <rc><c>Na</c><c>   2</c></rc>
    <rc><c>Na</c><c>   2</c></rc>
    <rc><c>Na</c><c>   2</c></rc>
    <rc><c>Na</c><c>   2</c></rc>
    <rc><c>Na</c><c>   2</c></rc>
    <rc><c>Na</c><c>   2</c></rc>
    <rc><c>Na</c><c>   2</c></rc>
    <rc><c>Na</c><c>   2</c></rc>
    <rc><c>Na</c><c>   2</c></rc>
    <rc><c>Na</c><c>   2</c></rc>
    <rc><c>Na</c><c>   2</c></rc>
    <rc><c>Na</c><c>   2</c></rc>
    <rc><c>Na</c><c>   2</c></rc>
    <rc><c>Na</c><c>   2</c></rc>
    <rc><c>Na</c><c>   2</c></rc>
    <rc><c>Na</c><c>   2</c></rc>
    <rc><c>Na</c><c>   2</c></rc>
    <rc><c>Na</c><c>   2</c></rc>
    <rc><c>Na</c><c>   2</c></rc>
    <rc><c>Na</c><c>   2</c></rc>
    <rc><c>Na</c><c>   2</c></rc>
    <rc><c>Na</c><c>   2</c></rc>
    <rc><c>Na</c><c>   2</c></rc>
    <rc><c>Na</c><c>   2</c></rc>
    <rc><c>Na</c><c>   2</c></rc>
    <rc><c>Na</c><c>   2</c></rc>
    <rc><c>Na</c><c>   2</c></rc>
    <rc><c>Na</c><c>   2</c></rc>
    <rc><c>Na</c><c>   2</c></rc>
    <rc><c>Na</c><c>   2</c></rc>
    <rc><c>Na</c><c>   2</c></rc>
    <rc><c>Na</c><c>   2</c></rc>
    <rc><c>Na</c><c>   2</c></rc>
    <rc><c>Na</c><c>   2</c></rc>
    <rc><c>Na</c><c>   2</c></rc>
    <rc><c>Na</c><c>   2</c></rc>
    <rc><c>Na</c><c>   2</c></rc>
    <rc><c>Na</c><c>   2</c></rc>
    <rc><c>Na</c><c>   2</c></rc>
    <rc><c>Na</c><c>   2</c></rc>
    <rc><c>Na</c><c>   2</c></rc>
    <rc><c>Na</c><c>   2</c></rc>
    <rc><c>Na</c><c>   2</c></rc>
    <rc><c>Na</c><c>   2</c></rc>
    <rc><c>Na</c><c>   2</c></rc>
    <rc><c>Na</c><c>   2</c></rc>
    <rc><c>Na</c><c>   2</c></rc>
    <rc><c>Na</c><c>   2</c></rc>
    <rc><c>Na</c><c>   2</c></rc>
    <rc><c>Na</c><c>   2</c></rc>
    <rc><c>Na</c><c>   2</c></rc>
    <rc><c>Na</c><c>   2</c></rc>
    <rc><c>Na</c><c>   2</c></rc>
    <rc><c>Na</c><c>   2</c></rc>
    <rc><c>Na</c><c>   2</c></rc>
    <rc><c>Na</c><c>   2</c></rc>
    <rc><c>Na</c><c>   2</c></rc>
    <rc><c>Na</c><c>   2</c></rc>
    <rc><c>Na</c><c>   2</c></rc>
    <rc><c>Na</c><c>   2</c></rc>
    <rc><c>Na</c><c>   2</c></rc>
    <rc><c>Na</c><c>   2</c></rc>
    <rc><c>Na</c><c>   2</c></rc>
    <rc><c>Na</c><c>   2</c></rc>
    <rc><c>Na</c><c>   2</c></rc>
    <rc><c>Na</c><c>   2</c></rc>
    <rc><c>Na</c><c>   2</c></rc>
    <rc><c>Na</c><c>   2</c></rc>
    <rc><c>Na</c><c>   2</c></rc>
    <rc><c>Na</c><c>   2</c></rc>
    <rc><c>Na</c><c>   2</c></rc>
    <rc><c>Na</c><c>   2</c></rc>
    <rc><c>Na</c><c>   2</c></rc>
    <rc><c>Na</c><c>   2</c></rc>
    <rc><c>Na</c><c>   2</c></rc>
    <rc><c>Na</c><c>   2</c></rc>
    <rc><c>Na</c><c>   2</c></rc>
    <rc><c>Na</c><c>   2</c></rc>
    <rc><c>Na</c><c>   2</c></rc>
    <rc><c>Na</c><c>   2</c></rc>
    <rc><c>Na</c><c>   2</c></rc>
    <rc><c>Na</c><c>   2</c></rc>
    <rc><c>Na</c><c>   2</c></rc>
    <rc><c>Na</c><c>   2</c></rc>
    <rc><c>Na</c><c>   2</c></rc>
    <rc><c>Na</c><c>   2</c></rc>
    <rc><c>Na</c><c>   2</c></rc>
    <rc><c>Na</c><c>   2</c></rc>
    <rc><c>Na</c><c>   2</c></rc>
    <rc><c>Na</c><c>   2</c></rc>
    <rc><c>Na</c><c>   2</c></rc>
    <rc><c>Na</c><c>   2</c></rc>
    <rc><c>Na</c><c>   2</c></rc>
    <rc><c>Na</c><c>   2</c></rc>
    <rc><c>Na</c><c>   2</c></rc>
    <rc><c>Na</c><c>   2</c></rc>
    <rc><c>Na</c><c>   2</c></rc>
    <rc><c>Na</c><c>   2</c></rc>
    <rc><c>Na</c><c>   2</c></rc>
    <rc><c>Na</c><c>   2</c></rc>
    <rc><c>Na</c><c>   2</c></rc>
    <rc><c>Na</c><c>   2</c></rc>
    <rc><c>Na</c><c>   2</c></rc>
    <rc><c>Na</c><c>   2</c></rc>
    <rc><c>Na</c><c>   2</c></rc>
    <rc><c>Na</c><c>   2</c></rc>
    <rc><c>Na</c><c>   2</c></rc>
    <rc><c>Na</c><c>   2</c></rc>
    <rc><c>Na</c><c>   2</c></rc>
    <rc><c>Na</c><c>   2</c></rc>
    <rc><c>Na</c><c>   2</c></rc>
    <rc><c>Na</c><c>   2</c></rc>
    <rc><c>Na</c><c>   2</c></rc>
    <rc><c>Na</c><c>   2</c></rc>
    <rc><c>Na</c><c>   2</c></rc>
    <rc><c>Na</c><c>   2</c></rc>
    <rc><c>Na</c><c>   2</c></rc>
    <rc><c>Na</c><c>   2</c></rc>
    <rc><c>Na</c><c>   2</c></rc>
    <rc><c>Na</c><c>   2</c></rc>
    <rc><c>Na</c><c>   2</c></rc>
    <rc><c>Na</c><c>   2</c></rc>
    <rc><c>Na</c><c>   2</c></rc>
    <rc><c>Na</c><c>   2</c></rc>
    <rc><c>Na</c><c>   2</c></rc>
    <rc><c>Na</c><c>   2</c></rc>
    <rc><c>Na</c><c>   2</c></rc>
    <rc><c>Na</c><c>   2</c></rc>
    <rc><c>Na</c><c>   2</c></rc>
    <rc><c>Na</c><c>   2</c></rc>
    <rc><c>Na</c><c>   2</c></rc>
    <rc><c>Na</c><c>   2</c></rc>
    <rc><c>Na</c><c>   2</c></rc>
    <rc><c>Na</c><c>   2</c></rc>
    <rc><c>Na</c><c>   2</c></rc>
    <rc><c>Na</c><c>   2</c></rc>
    <rc><c>Na</c><c>   2</c></rc>
    <rc><c>Na</c><c>   2</c></rc>
    <rc><c>Na</c><c>   2</c></rc>
    <rc><c>Na</c><c>   2</c></rc>
    <rc><c>Na</c><c>   2</c></rc>
    <rc><c>Na</c><c>   2</c></rc>
    <rc><c>Na</c><c>   2</c></rc>
    <rc><c>Na</c><c>   2</c></rc>
    <rc><c>Na</c><c>   2</c></rc>
    <rc><c>Na</c><c>   2</c></rc>
    <rc><c>Na</c><c>   2</c></rc>
    <rc><c>Na</c><c>   2</c></rc>
    <rc><c>Na</c><c>   2</c></rc>
    <rc><c>Na</c><c>   2</c></rc>
    <rc><c>Na</c><c>   2</c></rc>
    <rc><c>Na</c><c>   2</c></rc>
    <rc><c>Na</c><c>   2</c></rc>
    <rc><c>Na</c><c>   2</c></rc>
    <rc><c>Na</c><c>   2</c></rc>
    <rc><c>Na</c><c>   2</c></rc>
    <rc><c>Na</c><c>   2</c></rc>
    <rc><c>Na</c><c>   2</c></rc>
    <rc><c>Na</c><c>   2</c></rc>
    <rc><c>Na</c><c>   2</c></rc>
    <rc><c>Na</c><c>   2</c></rc>
    <rc><c>Na</c><c>   2</c></rc>
    <rc><c>Na</c><c>   2</c></rc>
    <rc><c>Na</c><c>   2</c></rc>
    <rc><c>Na</c><c>   2</c></rc>
    <rc><c>Na</c><c>   2</c></rc>
    <rc><c>Na</c><c>   2</c></rc>
    <rc><c>Na</c><c>   2</c></rc>
    <rc><c>Na</c><c>   2</c></rc>
    <rc><c>Na</c><c>   2</c></rc>
    <rc><c>Na</c><c>   2</c></rc>
    <rc><c>Na</c><c>   2</c></rc>
    <rc><c>Na</c><c>   2</c></rc>
    <rc><c>Na</c><c>   2</c></rc>
    <rc><c>Na</c><c>   2</c></rc>
    <rc><c>Na</c><c>   2</c></rc>
    <rc><c>Na</c><c>   2</c></rc>
    <rc><c>Na</c><c>   2</c></rc>
    <rc><c>Na</c><c>   2</c></rc>
    <rc><c>Na</c><c>   2</c></rc>
    <rc><c>Na</c><c>   2</c></rc>
    <rc><c>Na</c><c>   2</c></rc>
    <rc><c>Na</c><c>   2</c></rc>
    <rc><c>Na</c><c>   2</c></rc>
    <rc><c>O </c><c>   3</c></rc>
    <rc><c>O </c><c>   3</c></rc>
    <rc><c>O </c><c>   3</c></rc>
    <rc><c>O </c><c>   3</c></rc>
    <rc><c>O </c><c>   3</c></rc>
    <rc><c>O </c><c>   3</c></rc>
    <rc><c>O </c><c>   3</c></rc>
    <rc><c>O </c><c>   3</c></rc>
    <rc><c>O </c><c>   3</c></rc>
    <rc><c>O </c><c>   3</c></rc>
    <rc><c>O </c><c>   3</c></rc>
    <rc><c>O </c><c>   3</c></rc>
    <rc><c>O </c><c>   3</c></rc>
    <rc><c>O </c><c>   3</c></rc>
    <rc><c>O </c><c>   3</c></rc>
    <rc><c>O </c><c>   3</c></rc>
    <rc><c>O </c><c>   3</c></rc>
    <rc><c>O </c><c>   3</c></rc>
    <rc><c>O </c><c>   3</c></rc>
    <rc><c>O </c><c>   3</c></rc>
    <rc><c>O </c><c>   3</c></rc>
    <rc><c>O </c><c>   3</c></rc>
    <rc><c>O </c><c>   3</c></rc>
    <rc><c>O </c><c>   3</c></rc>
    <rc><c>O </c><c>   3</c></rc>
    <rc><c>O </c><c>   3</c></rc>
    <rc><c>O </c><c>   3</c></rc>
    <rc><c>O </c><c>   3</c></rc>
    <rc><c>O </c><c>   3</c></rc>
    <rc><c>O </c><c>   3</c></rc>
    <rc><c>O </c><c>   3</c></rc>
    <rc><c>O </c><c>   3</c></rc>
   </set>
  </array>
  <array name="atomtypes" >
   <dimension dim="1">type</dimension>
   <field type="int">atomspertype</field>
   <field type="string">element</field>
   <field>mass</field>
   <field>valence</field>
   <field type="string">pseudopotential</field>
   <set>
    <rc><c>  32</c><c>Cl</c><c>     35.45300000</c><c>      7.00000000</c><c>  PAW_PBE Cl 06Sep2000                  </c></rc>
    <rc><c> 204</c><c>Na</c><c>     22.99000000</c><c>      1.00000000</c><c>  PAW_PBE Na 08Apr2002                  </c></rc>
    <rc><c>  32</c><c>O </c><c>     16.00000000</c><c>      6.00000000</c><c>  PAW_PBE O 08Apr2002                   </c></rc>
   </set>
  </array>
 </atominfo>
 <structure name="initialpos" >
  <crystal>
   <varray name="basis" >
    <v>      -8.90732730       8.90732730       0.00000000 </v>
    <v>     -17.81465460       0.00000000       0.00000000 </v>
    <v>       0.00000000       0.00000000      44.33026346 </v>
   </varray>
   <i name="volume">   7034.36872935 </i>
   <varray name="rec_basis" >
    <v>       0.00000000       0.11226712       0.00000000 </v>
    <v>      -0.05613356      -0.05613356       0.00000000 </v>
    <v>       0.00000000       0.00000000       0.02255795 </v>
   </varray>
  </crystal>
  <varray name="positions" >
   <v>       0.20237370       0.02819653       0.08469789 </v>
   <v>       0.20237666       0.02819407       0.18727457 </v>
   <v>       0.20237779       0.02819448       0.28908027 </v>
   <v>       0.20237738       0.02819488       0.38977762 </v>
   <v>       0.20239690       0.27817532       0.08472702 </v>
   <v>       0.20237728       0.27819485       0.18727563 </v>
   <v>       0.20237738       0.27819505       0.28905657 </v>
   <v>       0.20237746       0.27819486       0.38984288 </v>
   <v>       0.20237535       0.52819424       0.08469846 </v>
   <v>       0.20237736       0.52819456       0.18727459 </v>
   <v>       0.20237778       0.52819461       0.28908022 </v>
   <v>       0.20237737       0.52819492       0.38977764 </v>
   <v>       0.20239683       0.77817433       0.08472704 </v>
   <v>       0.20237661       0.77819605       0.18727540 </v>
   <v>       0.20238384       0.77818983       0.28905134 </v>
   <v>       0.20237738       0.77819490       0.38984284 </v>
   <v>       0.70237551       0.02819440       0.08469835 </v>
   <v>       0.70237763       0.02819474       0.18727454 </v>
   <v>       0.70237801       0.02819456       0.28908028 </v>
   <v>       0.70237734       0.02819489       0.38977762 </v>
   <v>       0.70239668       0.27817442       0.08472706 </v>
   <v>       0.70237664       0.27819603       0.18727545 </v>
   <v>       0.70238373       0.27818988       0.28905134 </v>
   <v>       0.70237736       0.27819493       0.38984284 </v>
   <v>       0.70237412       0.52819642       0.08469802 </v>
   <v>       0.70237700       0.52819418       0.18727462 </v>
   <v>       0.70237779       0.52819465       0.28908023 </v>
   <v>       0.70237725       0.52819493       0.38977763 </v>
   <v>       0.70239760       0.77817464       0.08472708 </v>
   <v>       0.70237593       0.77819673       0.18727584 </v>
   <v>       0.70238385       0.77818976       0.28905138 </v>
   <v>       0.70237732       0.77819498       0.38984284 </v>
   <v>       0.45237453       0.02819327       0.08545472 </v>
   <v>       0.20216102       0.15316913       0.03388184 </v>
   <v>       0.45238276       0.02819077       0.18734958 </v>
   <v>       0.20235621       0.15443917       0.13640967 </v>
   <v>       0.45237862       0.02819435       0.28914056 </v>
   <v>       0.20218683       0.15298058       0.23828717 </v>
   <v>       0.45238020       0.02819267       0.39017708 </v>
   <v>       0.20235394       0.15230456       0.34027772 </v>
   <v>       0.45224132       0.15316808       0.03384611 </v>
   <v>       0.45238377       0.27818953       0.08548108 </v>
   <v>       0.20263155       0.40319612       0.03388520 </v>
   <v>       0.45501479       0.15183525       0.13627944 </v>
   <v>       0.45237915       0.27819333       0.18732015 </v>
   <v>       0.20239634       0.40195017       0.13641027 </v>
   <v>       0.45194280       0.15338353       0.23825211 </v>
   <v>       0.45237955       0.27819340       0.28917975 </v>
   <v>       0.20257414       0.40340133       0.23828564 </v>
   <v>       0.45067343       0.15403153       0.34017169 </v>
   <v>       0.45237935       0.27819309       0.39024187 </v>
   <v>       0.20240308       0.40408478       0.34027757 </v>
   <v>       0.45252669       0.40320380       0.03383697 </v>
   <v>       0.45238325       0.52818998       0.08545567 </v>
   <v>       0.20216273       0.65316905       0.03388152 </v>
   <v>       0.44973433       0.40455260       0.13627930 </v>
   <v>       0.45236753       0.52819988       0.18735124 </v>
   <v>       0.20235662       0.65443890       0.13640987 </v>
   <v>       0.45281390       0.40300621       0.23825276 </v>
   <v>       0.45237841       0.52819456       0.28914093 </v>
   <v>       0.20218566       0.65298041       0.23828778 </v>
   <v>       0.45408396       0.40235710       0.34017184 </v>
   <v>       0.45238025       0.52819261       0.39017723 </v>
   <v>       0.20235392       0.65230448       0.34027781 </v>
   <v>       0.45224226       0.65316799       0.03384646 </v>
   <v>       0.45236870       0.77819795       0.08548229 </v>
   <v>       0.20263144       0.90319665       0.03388539 </v>
   <v>       0.45502530       0.65182840       0.13627871 </v>
   <v>       0.45238546       0.77819167       0.18732091 </v>
   <v>       0.20239254       0.90194572       0.13641830 </v>
   <v>       0.45194390       0.65338319       0.23825271 </v>
   <v>       0.45237934       0.77819431       0.28917970 </v>
   <v>       0.20257440       0.90340142       0.23828598 </v>
   <v>       0.45067358       0.65403148       0.34017177 </v>
   <v>       0.45237935       0.77819314       0.39024186 </v>
   <v>       0.20240327       0.90408498       0.34027763 </v>
   <v>       0.45252591       0.90320403       0.03383702 </v>
   <v>       0.44973564       0.90455223       0.13627966 </v>
   <v>       0.45281409       0.90300679       0.23825200 </v>
   <v>       0.45408388       0.90235723       0.34017170 </v>
   <v>       0.95238310       0.02819014       0.08545562 </v>
   <v>       0.70216282       0.15316894       0.03388150 </v>
   <v>       0.95236749       0.02819988       0.18735122 </v>
   <v>       0.70235712       0.15443862       0.13640987 </v>
   <v>       0.95237855       0.02819439       0.28914093 </v>
   <v>       0.70218590       0.15297987       0.23828790 </v>
   <v>       0.95238030       0.02819260       0.39017722 </v>
   <v>       0.70235393       0.15230442       0.34027782 </v>
   <v>       0.95224245       0.15316785       0.03384649 </v>
   <v>       0.95236961       0.27819700       0.08548230 </v>
   <v>       0.70263153       0.40319651       0.03388541 </v>
   <v>       0.95502539       0.15182805       0.13627874 </v>
   <v>       0.95238688       0.27819038       0.18732092 </v>
   <v>       0.70239279       0.40194518       0.13641844 </v>
   <v>       0.95194487       0.15338254       0.23825287 </v>
   <v>       0.95238034       0.27819337       0.28917982 </v>
   <v>       0.70257483       0.40340122       0.23828602 </v>
   <v>       0.95067362       0.15403146       0.34017176 </v>
   <v>       0.95237949       0.27819300       0.39024187 </v>
   <v>       0.70240334       0.40408487       0.34027769 </v>
   <v>       0.95252608       0.40320396       0.03383703 </v>
   <v>       0.95237472       0.52819309       0.08545491 </v>
   <v>       0.70216112       0.65316917       0.03388183 </v>
   <v>       0.94973331       0.40455325       0.13627922 </v>
   <v>       0.95238265       0.52819082       0.18734984 </v>
   <v>       0.70235599       0.65443944       0.13640950 </v>
   <v>       0.95281427       0.40300649       0.23825256 </v>
   <v>       0.95237839       0.52819454       0.28914073 </v>
   <v>       0.70218675       0.65297966       0.23828796 </v>
   <v>       0.95408424       0.40235703       0.34017176 </v>
   <v>       0.95238042       0.52819255       0.39017718 </v>
   <v>       0.70235401       0.65230443       0.34027782 </v>
   <v>       0.95224122       0.65316808       0.03384614 </v>
   <v>       0.95238282       0.77819047       0.08548102 </v>
   <v>       0.70263160       0.90319617       0.03388517 </v>
   <v>       0.95501449       0.65183565       0.13627928 </v>
   <v>       0.95237770       0.77819463       0.18732015 </v>
   <v>       0.70239636       0.90194921       0.13641063 </v>
   <v>       0.95194442       0.65338283       0.23825291 </v>
   <v>       0.95237857       0.77819433       0.28917970 </v>
   <v>       0.70257010       0.90340996       0.23828688 </v>
   <v>       0.95067336       0.65403153       0.34017177 </v>
   <v>       0.95237944       0.77819306       0.39024187 </v>
   <v>       0.70240311       0.90408501       0.34027757 </v>
   <v>       0.95252662       0.90320388       0.03383693 </v>
   <v>       0.94973334       0.90455328       0.13627915 </v>
   <v>       0.95281382       0.90300647       0.23825275 </v>
   <v>       0.95408369       0.90235724       0.34017180 </v>
   <v>       0.19650821       0.05584649       0.50189025 </v>
   <v>       0.19609966       0.22294976       0.45663173 </v>
   <v>       0.19659190       0.05577125       0.59417460 </v>
   <v>       0.19667559       0.22243015       0.54612254 </v>
   <v>       0.19617508       0.05604451       0.68801744 </v>
   <v>       0.19634297       0.22260662       0.64175938 </v>
   <v>       0.19609023       0.05617897       0.78108799 </v>
   <v>       0.19613379       0.22277160       0.73488010 </v>
   <v>       0.19621893       0.05600792       0.87663884 </v>
   <v>       0.19632969       0.22275413       0.82869156 </v>
   <v>       0.19609490       0.05613371       0.96601986 </v>
   <v>       0.19632769       0.22256505       0.92091747 </v>
   <v>       0.52913080       0.05493661       0.50209615 </v>
   <v>       0.53019593       0.22178629       0.45669784 </v>
   <v>       0.52863531       0.05509525       0.59441365 </v>
   <v>       0.53065393       0.22056179       0.54673112 </v>
   <v>       0.52998661       0.05410255       0.68768252 </v>
   <v>       0.52973333       0.22111437       0.64130397 </v>
   <v>       0.52893241       0.05494423       0.78148882 </v>
   <v>       0.52996363       0.22071993       0.73520057 </v>
   <v>       0.53040394       0.05400433       0.87608122 </v>
   <v>       0.52877800       0.22147428       0.82833761 </v>
   <v>       0.53051987       0.05505132       0.96612650 </v>
   <v>       0.52946491       0.22143017       0.92062791 </v>
   <v>       0.19650018       0.38917563       0.50188017 </v>
   <v>       0.19599485       0.55646784       0.45667097 </v>
   <v>       0.19644069       0.38922279       0.59419814 </v>
   <v>       0.19668037       0.55578873       0.54612070 </v>
   <v>       0.19623863       0.38937817       0.68797042 </v>
   <v>       0.19646519       0.55591029       0.64176416 </v>
   <v>       0.19611384       0.38947776       0.78110362 </v>
   <v>       0.19614530       0.55615951       0.73484839 </v>
   <v>       0.19634573       0.38925695       0.87660017 </v>
   <v>       0.19610153       0.55620323       0.82872483 </v>
   <v>       0.19639894       0.38922659       0.96604182 </v>
   <v>       0.19638455       0.55589021       0.92093517 </v>
   <v>       0.86380573       0.05694935       0.50208614 </v>
   <v>       0.86219032       0.22352306       0.45672357 </v>
   <v>       0.86446483       0.05647852       0.59440903 </v>
   <v>       0.86225301       0.22433869       0.54675908 </v>
   <v>       0.86239591       0.05780619       0.68766064 </v>
   <v>       0.86321560       0.22377884       0.64133504 </v>
   <v>       0.86300039       0.05705879       0.78158548 </v>
   <v>       0.86235033       0.22452521       0.73524283 </v>
   <v>       0.86236556       0.05762761       0.87608151 </v>
   <v>       0.86426156       0.22330413       0.82846709 </v>
   <v>       0.86251032       0.05655588       0.96616307 </v>
   <v>       0.86311110       0.22366741       0.92075110 </v>
   <v>       0.52910608       0.38826729       0.50210197 </v>
   <v>       0.53077863       0.55481261       0.45675755 </v>
   <v>       0.52868162       0.38842251       0.59441817 </v>
   <v>       0.53096304       0.55384283       0.54668800 </v>
   <v>       0.53013257       0.38734763       0.68761223 </v>
   <v>       0.53013299       0.55464094       0.64136568 </v>
   <v>       0.52927558       0.38798016       0.78156350 </v>
   <v>       0.53018867       0.55384242       0.73518313 </v>
   <v>       0.53042629       0.38744868       0.87610562 </v>
   <v>       0.52874268       0.55484130       0.82842959 </v>
   <v>       0.53035185       0.38848626       0.96612611 </v>
   <v>       0.52928327       0.55482823       0.92073712 </v>
   <v>       0.19646523       0.72259497       0.50190674 </v>
   <v>       0.19591036       0.88971445       0.45667570 </v>
   <v>       0.19673972       0.72234278       0.59419119 </v>
   <v>       0.19670619       0.88900084       0.54615678 </v>
   <v>       0.19621027       0.72263335       0.68799601 </v>
   <v>       0.19656279       0.88911000       0.64179970 </v>
   <v>       0.19625060       0.72282908       0.78108237 </v>
   <v>       0.19625696       0.88946955       0.73489111 </v>
   <v>       0.19654602       0.72263252       0.87666973 </v>
   <v>       0.19621302       0.88946292       0.82868505 </v>
   <v>       0.19605340       0.72268553       0.96603569 </v>
   <v>       0.19642907       0.88919902       0.92090664 </v>
   <v>       0.86390479       0.39019249       0.50211213 </v>
   <v>       0.86227775       0.55692185       0.45672860 </v>
   <v>       0.86447378       0.38998047       0.59438182 </v>
   <v>       0.86223852       0.55779055       0.54678253 </v>
   <v>       0.86266914       0.39111367       0.68766621 </v>
   <v>       0.86310204       0.55727835       0.64134375 </v>
   <v>       0.86300932       0.39015997       0.78161290 </v>
   <v>       0.86239098       0.55783078       0.73523195 </v>
   <v>       0.86255427       0.39081417       0.87613848 </v>
   <v>       0.86417408       0.55661774       0.82844471 </v>
   <v>       0.86240831       0.39013810       0.96612418 </v>
   <v>       0.86338950       0.55695805       0.92072242 </v>
   <v>       0.52928316       0.72165518       0.50213919 </v>
   <v>       0.53043642       0.88829044       0.45670925 </v>
   <v>       0.52879995       0.72167787       0.59441054 </v>
   <v>       0.53086533       0.88721556       0.54670024 </v>
   <v>       0.52981728       0.72092447       0.68770761 </v>
   <v>       0.52979559       0.88787412       0.64133911 </v>
   <v>       0.52929464       0.72133768       0.78156040 </v>
   <v>       0.53012795       0.88730714       0.73516325 </v>
   <v>       0.53037163       0.72084957       0.87607679 </v>
   <v>       0.52837033       0.88841839       0.82836385 </v>
   <v>       0.53043964       0.72171589       0.96614427 </v>
   <v>       0.52931415       0.88815439       0.92070699 </v>
   <v>       0.86383135       0.72363013       0.50210623 </v>
   <v>       0.86223183       0.89016787       0.45672677 </v>
   <v>       0.86440310       0.72331152       0.59441485 </v>
   <v>       0.86209489       0.89102896       0.54678617 </v>
   <v>       0.86255028       0.72451267       0.68768744 </v>
   <v>       0.86317817       0.89052587       0.64133789 </v>
   <v>       0.86288679       0.72369741       0.78158113 </v>
   <v>       0.86249488       0.89100212       0.73525112 </v>
   <v>       0.86222036       0.72433126       0.87611736 </v>
   <v>       0.86414647       0.88997587       0.82845099 </v>
   <v>       0.86251738       0.72330030       0.96615891 </v>
   <v>       0.86300371       0.89054480       0.92071513 </v>
   <v>       0.45241106       0.02817322       0.03489963 </v>
   <v>       0.45237844       0.02819199       0.13642685 </v>
   <v>       0.45237872       0.02819455       0.23826700 </v>
   <v>       0.45237954       0.02819340       0.34012931 </v>
   <v>       0.45241202       0.27817398       0.03490584 </v>
   <v>       0.45237733       0.27819306       0.13643003 </v>
   <v>       0.45237899       0.27819396       0.23826097 </v>
   <v>       0.45237948       0.27819373       0.34017440 </v>
   <v>       0.45241159       0.52817308       0.03490009 </v>
   <v>       0.45237660       0.52819204       0.13642787 </v>
   <v>       0.45237892       0.52819406       0.23826787 </v>
   <v>       0.45237944       0.52819346       0.34012948 </v>
   <v>       0.45241106       0.77817471       0.03490644 </v>
   <v>       0.45237453       0.77819378       0.13643084 </v>
   <v>       0.45237933       0.77819443       0.23826119 </v>
   <v>       0.45237908       0.77819400       0.34017438 </v>
   <v>       0.95241160       0.02817307       0.03490007 </v>
   <v>       0.95237667       0.02819196       0.13642786 </v>
   <v>       0.95237877       0.02819420       0.23826787 </v>
   <v>       0.95237947       0.02819341       0.34012948 </v>
   <v>       0.95241107       0.27817468       0.03490646 </v>
   <v>       0.95237477       0.27819338       0.13643087 </v>
   <v>       0.95238012       0.27819385       0.23826124 </v>
   <v>       0.95237909       0.27819372       0.34017444 </v>
   <v>       0.95241104       0.52817324       0.03489973 </v>
   <v>       0.95237823       0.52819218       0.13642695 </v>
   <v>       0.95237946       0.52819378       0.23826734 </v>
   <v>       0.95237903       0.52819389       0.34012950 </v>
   <v>       0.95241197       0.77817401       0.03490582 </v>
   <v>       0.95237693       0.77819347       0.13642999 </v>
   <v>       0.95237887       0.77819451       0.23826092 </v>
   <v>       0.95237901       0.77819400       0.34017439 </v>
  </varray>
 </structure>
 <calculation>
  <scstep>
   <time name="dav">    8.12    8.13</time>
   <time name="total">    8.37    8.38</time>
   <energy>
    <i name="alphaZ">   -178.91253129 </i>
    <i name="ewald"> 121257.92345595 </i>
    <i name="hartreedc">-147189.16945543 </i>
    <i name="XCdc">  -5937.49756599 </i>
    <i name="pawpsdc">  29633.13489558 </i>
    <i name="pawaedc"> -22042.59917747 </i>
    <i name="eentropy">     -0.29246291 </i>
    <i name="bandstr">    532.78064726 </i>
    <i name="atom">  27995.60725988 </i>
    <i name="e_fr_energy">   4070.97506559 </i>
    <i name="e_wo_entrp">   4071.26752850 </i>
    <i name="e_0_energy">   4071.12129704 </i>
   </energy>
  </scstep>
  <scstep>
   <time name="dav">   10.33   10.35</time>
   <time name="total">   10.33   10.35</time>
   <energy>
    <i name="e_fr_energy">    402.22829555 </i>
    <i name="e_wo_entrp">    402.53088206 </i>
    <i name="e_0_energy">    402.37958880 </i>
   </energy>
  </scstep>
  <scstep>
   <time name="dav">   10.41   10.42</time>
   <time name="total">   10.41   10.42</time>
   <energy>
    <i name="e_fr_energy">   -836.59586681 </i>
    <i name="e_wo_entrp">   -836.35232269 </i>
    <i name="e_0_energy">   -836.47409475 </i>
   </energy>
  </scstep>
  <scstep>
   <time name="dav">    9.02    9.02</time>
   <time name="total">    9.02    9.02</time>
   <energy>
    <i name="e_fr_energy">   -882.29024651 </i>
    <i name="e_wo_entrp">   -882.03130879 </i>
    <i name="e_0_energy">   -882.16077765 </i>
   </energy>
  </scstep>
  <scstep>
   <time name="dav">   10.18   10.18</time>
   <time name="total">   10.37   10.37</time>
   <energy>
    <i name="e_fr_energy">   -883.79959820 </i>
    <i name="e_wo_entrp">   -883.53591582 </i>
    <i name="e_0_energy">   -883.66775701 </i>
   </energy>
  </scstep>
  <scstep>
   <time name="diag">    1.46    1.47</time>
   <time name="diis">    4.08    4.08</time>
   <time name="orth">    0.61    0.61</time>
   <time name="total">    6.58    6.59</time>
   <energy>
    <i name="e_fr_energy">   -719.16651246 </i>
    <i name="e_wo_entrp">   -718.82303028 </i>
    <i name="e_0_energy">   -718.99477137 </i>
   </energy>
  </scstep>
  <scstep>
   <time name="diag">    1.47    1.47</time>
   <time name="diis">    4.48    4.48</time>
   <time name="orth">    0.61    0.61</time>
   <time name="total">    6.98    7.01</time>
   <energy>
    <i name="e_fr_energy">   -721.62120007 </i>
    <i name="e_wo_entrp">   -721.27534499 </i>
    <i name="e_0_energy">   -721.44827253 </i>
   </energy>
  </scstep>
  <scstep>
   <time name="diag">    1.46    1.46</time>
   <time name="diis">    4.20    4.20</time>
   <time name="orth">    0.61    0.61</time>
   <time name="total">    6.69    6.69</time>
   <energy>
    <i name="e_fr_energy">   -717.72540029 </i>
    <i name="e_wo_entrp">   -717.38529915 </i>
    <i name="e_0_energy">   -717.55534972 </i>
   </energy>
  </scstep>
  <scstep>
   <time name="diag">    1.46    1.46</time>
   <time name="diis">    4.17    4.17</time>
   <time name="orth">    0.61    0.61</time>
   <time name="total">    6.66    6.66</time>
   <energy>
    <i name="e_fr_energy">   -716.47769288 </i>
    <i name="e_wo_entrp">   -716.11899576 </i>
    <i name="e_0_energy">   -716.29834432 </i>
   </energy>
  </scstep>
  <scstep>
   <time name="diag">    1.46    1.46</time>
   <time name="diis">    4.57    4.57</time>
   <time name="orth">    0.61    0.61</time>
   <time name="total">    7.06    7.06</time>
   <energy>
    <i name="e_fr_energy">   -716.00462774 </i>
    <i name="e_wo_entrp">   -715.68171705 </i>
    <i name="e_0_energy">   -715.84317239 </i>
   </energy>
  </scstep>
  <scstep>
   <time name="diag">    1.46    1.46</time>
   <time name="diis">    4.16    4.16</time>
   <time name="orth">    0.61    0.61</time>
   <time name="total">    6.66    6.66</time>
   <energy>
    <i name="e_fr_energy">   -715.38319515 </i>
    <i name="e_wo_entrp">   -715.06276544 </i>
    <i name="e_0_energy">   -715.22298030 </i>
   </energy>
  </scstep>
  <scstep>
   <time name="diag">    1.48    1.48</time>
   <time name="diis">    4.39    4.39</time>
   <time name="orth">    0.61    0.61</time>
   <time name="total">    6.89    6.90</time>
   <energy>
    <i name="e_fr_energy">   -715.35505022 </i>
    <i name="e_wo_entrp">   -715.03772412 </i>
    <i name="e_0_energy">   -715.19638717 </i>
   </energy>
  </scstep>
  <scstep>
   <time name="diag">    1.46    1.46</time>
   <time name="diis">    4.38    4.38</time>
   <time name="orth">    0.61    0.61</time>
   <time name="total">    6.88    6.89</time>
   <energy>
    <i name="e_fr_energy">   -715.29589131 </i>
    <i name="e_wo_entrp">   -714.97947536 </i>
    <i name="e_0_energy">   -715.13768334 </i>
   </energy>
  </scstep>
  <scstep>
   <time name="diag">    1.47    1.47</time>
   <time name="diis">    4.76    4.76</time>
   <time name="orth">    0.61    0.61</time>
   <time name="total">    7.26    7.26</time>
   <energy>
    <i name="e_fr_energy">   -715.31231097 </i>
    <i name="e_wo_entrp">   -714.99613957 </i>
    <i name="e_0_energy">   -715.15422527 </i>
   </energy>
  </scstep>
  <scstep>
   <time name="diag">    1.49    1.49</time>
   <time name="diis">    4.64    4.64</time>
   <time name="orth">    0.61    0.61</time>
   <time name="total">    7.16    7.16</time>
   <energy>
    <i name="e_fr_energy">   -715.30108453 </i>
    <i name="e_wo_entrp">   -714.98494606 </i>
    <i name="e_0_energy">   -715.14301529 </i>
   </energy>
  </scstep>
  <scstep>
   <time name="diag">    1.47    1.47</time>
   <time name="diis">    4.08    4.08</time>
   <time name="orth">    0.61    0.61</time>
   <time name="total">    6.59    6.61</time>
   <energy>
    <i name="e_fr_energy">   -715.25453142 </i>
    <i name="e_wo_entrp">   -714.93861263 </i>
    <i name="e_0_energy">   -715.09657203 </i>
   </energy>
  </scstep>
  <scstep>
   <time name="diag">    1.47    1.47</time>
   <time name="diis">    4.62    4.62</time>
   <time name="orth">    0.61    0.61</time>
   <time name="total">    7.12    7.12</time>
   <energy>
[...]
       <r>     3.4896    94.8125   759.8311 </r>
       <r>     3.5667   118.6820   768.9897 </r>
       <r>     3.6439   104.6099   777.0623 </r>
       <r>     3.7211    82.4983   783.4287 </r>
       <r>     3.7982    79.3659   789.5533 </r>
       <r>     3.8754    76.8921   795.4870 </r>
       <r>     3.9526    61.3909   800.2244 </r>
       <r>     4.0298    63.1091   805.0945 </r>
       <r>     4.1069    82.7757   811.4823 </r>
       <r>     4.1841    96.3317   818.9161 </r>
       <r>     4.2613    88.4029   825.7381 </r>
       <r>     4.3384    78.6183   831.8050 </r>
       <r>     4.4156    63.7801   836.7269 </r>
       <r>     4.4928    37.6636   839.6333 </r>
       <r>     4.5699    21.8682   841.3209 </r>
       <r>     4.6471    13.9249   842.3955 </r>
       <r>     4.7243    16.6465   843.6801 </r>
       <r>     4.8014    24.9326   845.6041 </r>
       <r>     4.8786    22.0005   847.3019 </r>
       <r>     4.9558    10.8651   848.1403 </r>
       <r>     5.0330    10.2710   848.9329 </r>
       <r>     5.1101    19.9030   850.4688 </r>
       <r>     5.1873    30.8725   852.8512 </r>
       <r>     5.2645    43.6994   856.2235 </r>
       <r>     5.3416    58.5945   860.7451 </r>
       <r>     5.4188    61.9214   865.5236 </r>
       <r>     5.4960    59.6384   870.1258 </r>
       <r>     5.5731    68.3105   875.3973 </r>
       <r>     5.6503    71.6442   880.9260 </r>
       <r>     5.7275    68.1412   886.1844 </r>
       <r>     5.8046    55.1095   890.4372 </r>
       <r>     5.8818    34.3749   893.0899 </r>
       <r>     5.9590    16.6747   894.3766 </r>
       <r>     6.0362     7.2936   894.9395 </r>
       <r>     6.1133     5.1133   895.3341 </r>
       <r>     6.1905     5.4667   895.7559 </r>
       <r>     6.2677     2.6824   895.9629 </r>
       <r>     6.3448     0.4543   895.9980 </r>
       <r>     6.4220     0.0255   896.0000 </r>
       <r>     6.4992     0.0005   896.0000 </r>
       <r>     6.5763     0.0000   896.0000 </r>
       <r>     6.6535     0.0000   896.0000 </r>
       <r>     6.7307     0.0000   896.0000 </r>
       <r>     6.8078     0.0000   896.0000 </r>
       <r>     6.8850     0.0000   896.0000 </r>
       <r>     6.9622     0.0000   896.0000 </r>
       <r>     7.0394     0.0000   896.0000 </r>
       <r>     7.1165     0.0000   896.0000 </r>
       <r>     7.1937     0.0000   896.0000 </r>
      </set>
     </set>
    </array>
   </total>
  </dos>
 </calculation>
 <structure name="finalpos" >
  <crystal>
   <varray name="basis" >
    <v>      -8.90732730       8.90732730       0.00000000 </v>
    <v>     -17.81465460       0.00000000       0.00000000 </v>
    <v>       0.00000000       0.00000000      44.33026346 </v>
   </varray>
   <i name="volume">   7034.36872935 </i>
   <varray name="rec_basis" >
    <v>       0.00000000       0.11226712       0.00000000 </v>
    <v>      -0.05613356      -0.05613356       0.00000000 </v>
    <v>       0.00000000       0.00000000       0.02255795 </v>
   </varray>
  </crystal>
  <varray name="positions" >
   <v>       0.20237370       0.02819653       0.08469789 </v>
   <v>       0.20237666       0.02819407       0.18727457 </v>
   <v>       0.20237779       0.02819448       0.28908027 </v>
   <v>       0.20237738       0.02819488       0.38977762 </v>
   <v>       0.20239690       0.27817532       0.08472702 </v>
   <v>       0.20237728       0.27819485       0.18727563 </v>
   <v>       0.20237738       0.27819505       0.28905657 </v>
   <v>       0.20237746       0.27819486       0.38984288 </v>
   <v>       0.20237535       0.52819424       0.08469846 </v>
   <v>       0.20237736       0.52819456       0.18727459 </v>
   <v>       0.20237778       0.52819461       0.28908022 </v>
   <v>       0.20237737       0.52819492       0.38977764 </v>
   <v>       0.20239683       0.77817433       0.08472704 </v>
   <v>       0.20237661       0.77819605       0.18727540 </v>
   <v>       0.20238384       0.77818983       0.28905134 </v>
   <v>       0.20237738       0.77819490       0.38984284 </v>
   <v>       0.70237551       0.02819440       0.08469835 </v>
   <v>       0.70237763       0.02819474       0.18727454 </v>
   <v>       0.70237801       0.02819456       0.28908028 </v>
   <v>       0.70237734       0.02819489       0.38977762 </v>
   <v>       0.70239668       0.27817442       0.08472706 </v>
   <v>       0.70237664       0.27819603       0.18727545 </v>
   <v>       0.70238373       0.27818988       0.28905134 </v>
   <v>       0.70237736       0.27819493       0.38984284 </v>
   <v>       0.70237412       0.52819642       0.08469802 </v>
   <v>       0.70237700       0.52819418       0.18727462 </v>
   <v>       0.70237779       0.52819465       0.28908023 </v>
   <v>       0.70237725       0.52819493       0.38977763 </v>
   <v>       0.70239760       0.77817464       0.08472708 </v>
   <v>       0.70237593       0.77819673       0.18727584 </v>
   <v>       0.70238385       0.77818976       0.28905138 </v>
   <v>       0.70237732       0.77819498       0.38984284 </v>
   <v>       0.45237453       0.02819327       0.08545472 </v>
   <v>       0.20216102       0.15316913       0.03388184 </v>
   <v>       0.45238276       0.02819077       0.18734958 </v>
   <v>       0.20235621       0.15443917       0.13640967 </v>
   <v>       0.45237862       0.02819435       0.28914056 </v>
   <v>       0.20218683       0.15298058       0.23828717 </v>
   <v>       0.45238020       0.02819267       0.39017708 </v>
   <v>       0.20235394       0.15230456       0.34027772 </v>
   <v>       0.45224132       0.15316808       0.03384611 </v>
   <v>       0.45238377       0.27818953       0.08548108 </v>
   <v>       0.20263155       0.40319612       0.03388520 </v>
   <v>       0.45501479       0.15183525       0.13627944 </v>
   <v>       0.45237915       0.27819333       0.18732015 </v>
   <v>       0.20239634       0.40195017       0.13641027 </v>
   <v>       0.45194280       0.15338353       0.23825211 </v>
   <v>       0.45237955       0.27819340       0.28917975 </v>
   <v>       0.20257414       0.40340133       0.23828564 </v>
   <v>       0.45067343       0.15403153       0.34017169 </v>
   <v>       0.45237935       0.27819309       0.39024187 </v>
   <v>       0.20240308       0.40408478       0.34027757 </v>
   <v>       0.45252669       0.40320380       0.03383697 </v>
   <v>       0.45238325       0.52818998       0.08545567 </v>
   <v>       0.20216273       0.65316905       0.03388152 </v>
   <v>       0.44973433       0.40455260       0.13627930 </v>
   <v>       0.45236753       0.52819988       0.18735124 </v>
   <v>       0.20235662       0.65443890       0.13640987 </v>
   <v>       0.45281390       0.40300621       0.23825276 </v>
   <v>       0.45237841       0.52819456       0.28914093 </v>
   <v>       0.20218566       0.65298041       0.23828778 </v>
   <v>       0.45408396       0.40235710       0.34017184 </v>
   <v>       0.45238025       0.52819261       0.39017723 </v>
   <v>       0.20235392       0.65230448       0.34027781 </v>
   <v>       0.45224226       0.65316799       0.03384646 </v>
   <v>       0.45236870       0.77819795       0.08548229 </v>
   <v>       0.20263144       0.90319665       0.03388539 </v>
   <v>       0.45502530       0.65182840       0.13627871 </v>
   <v>       0.45238546       0.77819167       0.18732091 </v>
   <v>       0.20239254       0.90194572       0.13641830 </v>
   <v>       0.45194390       0.65338319       0.23825271 </v>
   <v>       0.45237934       0.77819431       0.28917970 </v>
   <v>       0.20257440       0.90340142       0.23828598 </v>
   <v>       0.45067358       0.65403148       0.34017177 </v>
   <v>       0.45237935       0.77819314       0.39024186 </v>
   <v>       0.20240327       0.90408498       0.34027763 </v>
   <v>       0.45252591       0.90320403       0.03383702 </v>
   <v>       0.44973564       0.90455223       0.13627966 </v>
   <v>       0.45281409       0.90300679       0.23825200 </v>
   <v>       0.45408388       0.90235723       0.34017170 </v>
   <v>       0.95238310       0.02819014       0.08545562 </v>
   <v>       0.70216282       0.15316894       0.03388150 </v>
   <v>       0.95236749       0.02819988       0.18735122 </v>
   <v>       0.70235712       0.15443862       0.13640987 </v>
   <v>       0.95237855       0.02819439       0.28914093 </v>
   <v>       0.70218590       0.15297987       0.23828790 </v>
   <v>       0.95238030       0.02819260       0.39017722 </v>
   <v>       0.70235393       0.15230442       0.34027782 </v>
   <v>       0.95224245       0.15316785       0.03384649 </v>
   <v>       0.95236961       0.27819700       0.08548230 </v>
   <v>       0.70263153       0.40319651       0.03388541 </v>
   <v>       0.95502539       0.15182805       0.13627874 </v>
   <v>       0.95238688       0.27819038       0.18732092 </v>
   <v>       0.70239279       0.40194518       0.13641844 </v>
   <v>       0.95194487       0.15338254       0.23825287 </v>
   <v>       0.95238034       0.27819337       0.28917982 </v>
   <v>       0.70257483       0.40340122       0.23828602 </v>
   <v>       0.95067362       0.15403146       0.34017176 </v>
   <v>       0.95237949       0.27819300       0.39024187 </v>
   <v>       0.70240334       0.40408487       0.34027769 </v>
   <v>       0.95252608       0.40320396       0.03383703 </v>
   <v>       0.95237472       0.52819309       0.08545491 </v>
   <v>       0.70216112       0.65316917       0.03388183 </v>
   <v>       0.94973331       0.40455325       0.13627922 </v>
   <v>       0.95238265       0.52819082       0.18734984 </v>
   <v>       0.70235599       0.65443944       0.13640950 </v>
   <v>       0.95281427       0.40300649       0.23825256 </v>
   <v>       0.95237839       0.52819454       0.28914073 </v>
   <v>       0.70218675       0.65297966       0.23828796 </v>
   <v>       0.95408424       0.40235703       0.34017176 </v>
   <v>       0.95238042       0.52819255       0.39017718 </v>
   <v>       0.70235401       0.65230443       0.34027782 </v>
   <v>       0.95224122       0.65316808       0.03384614 </v>
   <v>       0.95238282       0.77819047       0.08548102 </v>
   <v>       0.70263160       0.90319617       0.03388517 </v>
   <v>       0.95501449       0.65183565       0.13627928 </v>
   <v>       0.95237770       0.77819463       0.18732015 </v>
   <v>       0.70239636       0.90194921       0.13641063 </v>
   <v>       0.95194442       0.65338283       0.23825291 </v>
   <v>       0.95237857       0.77819433       0.28917970 </v>
   <v>       0.70257010       0.90340996       0.23828688 </v>
   <v>       0.95067336       0.65403153       0.34017177 </v>
   <v>       0.95237944       0.77819306       0.39024187 </v>
   <v>       0.70240311       0.90408501       0.34027757 </v>
   <v>       0.95252662       0.90320388       0.03383693 </v>
   <v>       0.94973334       0.90455328       0.13627915 </v>
   <v>       0.95281382       0.90300647       0.23825275 </v>
   <v>       0.95408369       0.90235724       0.34017180 </v>
   <v>       0.19650821       0.05584649       0.50189025 </v>
   <v>       0.19609966       0.22294976       0.45663173 </v>
   <v>       0.19659190       0.05577125       0.59417460 </v>
   <v>       0.19667559       0.22243015       0.54612254 </v>
   <v>       0.19617508       0.05604451       0.68801744 </v>
   <v>       0.19634297       0.22260662       0.64175938 </v>
   <v>       0.19609023       0.05617897       0.78108799 </v>
   <v>       0.19613379       0.22277160       0.73488010 </v>
   <v>       0.19621893       0.05600792       0.87663884 </v>
   <v>       0.19632969       0.22275413       0.82869156 </v>
   <v>       0.19609490       0.05613371       0.96601986 </v>
   <v>       0.19632769       0.22256505       0.92091747 </v>
   <v>       0.52913080       0.05493661       0.50209615 </v>
   <v>       0.53019593       0.22178629       0.45669784 </v>
   <v>       0.52863531       0.05509525       0.59441365 </v>
   <v>       0.53065393       0.22056179       0.54673112 </v>
   <v>       0.52998661       0.05410255       0.68768252 </v>
   <v>       0.52973333       0.22111437       0.64130397 </v>
   <v>       0.52893241       0.05494423       0.78148882 </v>
   <v>       0.52996363       0.22071993       0.73520057 </v>
   <v>       0.53040394       0.05400433       0.87608122 </v>
   <v>       0.52877800       0.22147428       0.82833761 </v>
   <v>       0.53051987       0.05505132       0.96612650 </v>
   <v>       0.52946491       0.22143017       0.92062791 </v>
   <v>       0.19650018       0.38917563       0.50188017 </v>
   <v>       0.19599485       0.55646784       0.45667097 </v>
   <v>       0.19644069       0.38922279       0.59419814 </v>
   <v>       0.19668037       0.55578873       0.54612070 </v>
   <v>       0.19623863       0.38937817       0.68797042 </v>
   <v>       0.19646519       0.55591029       0.64176416 </v>
   <v>       0.19611384       0.38947776       0.78110362 </v>
   <v>       0.19614530       0.55615951       0.73484839 </v>
   <v>       0.19634573       0.38925695       0.87660017 </v>
   <v>       0.19610153       0.55620323       0.82872483 </v>
   <v>       0.19639894       0.38922659       0.96604182 </v>
   <v>       0.19638455       0.55589021       0.92093517 </v>
   <v>       0.86380573       0.05694935       0.50208614 </v>
   <v>       0.86219032       0.22352306       0.45672357 </v>
   <v>       0.86446483       0.05647852       0.59440903 </v>
   <v>       0.86225301       0.22433869       0.54675908 </v>
   <v>       0.86239591       0.05780619       0.68766064 </v>
   <v>       0.86321560       0.22377884       0.64133504 </v>
   <v>       0.86300039       0.05705879       0.78158548 </v>
   <v>       0.86235033       0.22452521       0.73524283 </v>
   <v>       0.86236556       0.05762761       0.87608151 </v>
   <v>       0.86426156       0.22330413       0.82846709 </v>
   <v>       0.86251032       0.05655588       0.96616307 </v>
   <v>       0.86311110       0.22366741       0.92075110 </v>
   <v>       0.52910608       0.38826729       0.50210197 </v>
   <v>       0.53077863       0.55481261       0.45675755 </v>
   <v>       0.52868162       0.38842251       0.59441817 </v>
   <v>       0.53096304       0.55384283       0.54668800 </v>
   <v>       0.53013257       0.38734763       0.68761223 </v>
   <v>       0.53013299       0.55464094       0.64136568 </v>
   <v>       0.52927558       0.38798016       0.78156350 </v>
   <v>       0.53018867       0.55384242       0.73518313 </v>
   <v>       0.53042629       0.38744868       0.87610562 </v>
   <v>       0.52874268       0.55484130       0.82842959 </v>
   <v>       0.53035185       0.38848626       0.96612611 </v>
   <v>       0.52928327       0.55482823       0.92073712 </v>
   <v>       0.19646523       0.72259497       0.50190674 </v>
   <v>       0.19591036       0.88971445       0.45667570 </v>
   <v>       0.19673972       0.72234278       0.59419119 </v>
   <v>       0.19670619       0.88900084       0.54615678 </v>
   <v>       0.19621027       0.72263335       0.68799601 </v>
   <v>       0.19656279       0.88911000       0.64179970 </v>
   <v>       0.19625060       0.72282908       0.78108237 </v>
   <v>       0.19625696       0.88946955       0.73489111 </v>
   <v>       0.19654602       0.72263252       0.87666973 </v>
   <v>       0.19621302       0.88946292       0.82868505 </v>
   <v>       0.19605340       0.72268553       0.96603569 </v>
   <v>       0.19642907       0.88919902       0.92090664 </v>
   <v>       0.86390479       0.39019249       0.50211213 </v>
   <v>       0.86227775       0.55692185       0.45672860 </v>
   <v>       0.86447378       0.38998047       0.59438182 </v>
   <v>       0.86223852       0.55779055       0.54678253 </v>
   <v>       0.86266914       0.39111367       0.68766621 </v>
   <v>       0.86310204       0.55727835       0.64134375 </v>
   <v>       0.86300932       0.39015997       0.78161290 </v>
   <v>       0.86239098       0.55783078       0.73523195 </v>
   <v>       0.86255427       0.39081417       0.87613848 </v>
   <v>       0.86417408       0.55661774       0.82844471 </v>
   <v>       0.86240831       0.39013810       0.96612418 </v>
   <v>       0.86338950       0.55695805       0.92072242 </v>
   <v>       0.52928316       0.72165518       0.50213919 </v>
   <v>       0.53043642       0.88829044       0.45670925 </v>
   <v>       0.52879995       0.72167787       0.59441054 </v>
   <v>       0.53086533       0.88721556       0.54670024 </v>
   <v>       0.52981728       0.72092447       0.68770761 </v>
   <v>       0.52979559       0.88787412       0.64133911 </v>
   <v>       0.52929464       0.72133768       0.78156040 </v>
   <v>       0.53012795       0.88730714       0.73516325 </v>
   <v>       0.53037163       0.72084957       0.87607679 </v>
   <v>       0.52837033       0.88841839       0.82836385 </v>
   <v>       0.53043964       0.72171589       0.96614427 </v>
   <v>       0.52931415       0.88815439       0.92070699 </v>
   <v>       0.86383135       0.72363013       0.50210623 </v>
   <v>       0.86223183       0.89016787       0.45672677 </v>
   <v>       0.86440310       0.72331152       0.59441485 </v>
   <v>       0.86209489       0.89102896       0.54678617 </v>
   <v>       0.86255028       0.72451267       0.68768744 </v>
   <v>       0.86317817       0.89052587       0.64133789 </v>
   <v>       0.86288679       0.72369741       0.78158113 </v>
   <v>       0.86249488       0.89100212       0.73525112 </v>
   <v>       0.86222036       0.72433126       0.87611736 </v>
   <v>       0.86414647       0.88997587       0.82845099 </v>
   <v>       0.86251738       0.72330030       0.96615891 </v>
   <v>       0.86300371       0.89054480       0.92071513 </v>
   <v>       0.45241106       0.02817322       0.03489963 </v>
   <v>       0.45237844       0.02819199       0.13642685 </v>
   <v>       0.45237872       0.02819455       0.23826700 </v>
   <v>       0.45237954       0.02819340       0.34012931 </v>
   <v>       0.45241202       0.27817398       0.03490584 </v>
   <v>       0.45237733       0.27819306       0.13643003 </v>
   <v>       0.45237899       0.27819396       0.23826097 </v>
   <v>       0.45237948       0.27819373       0.34017440 </v>
   <v>       0.45241159       0.52817308       0.03490009 </v>
   <v>       0.45237660       0.52819204       0.13642787 </v>
   <v>       0.45237892       0.52819406       0.23826787 </v>
   <v>       0.45237944       0.52819346       0.34012948 </v>
   <v>       0.45241106       0.77817471       0.03490644 </v>
   <v>       0.45237453       0.77819378       0.13643084 </v>
   <v>       0.45237933       0.77819443       0.23826119 </v>
   <v>       0.45237908       0.77819400       0.34017438 </v>
   <v>       0.95241160       0.02817307       0.03490007 </v>
   <v>       0.95237667       0.02819196       0.13642786 </v>
   <v>       0.95237877       0.02819420       0.23826787 </v>
   <v>       0.95237947       0.02819341       0.34012948 </v>
   <v>       0.95241107       0.27817468       0.03490646 </v>
   <v>       0.95237477       0.27819338       0.13643087 </v>
   <v>       0.95238012       0.27819385       0.23826124 </v>
   <v>       0.95237909       0.27819372       0.34017444 </v>
   <v>       0.95241104       0.52817324       0.03489973 </v>
   <v>       0.95237823       0.52819218       0.13642695 </v>
   <v>       0.95237946       0.52819378       0.23826734 </v>
   <v>       0.95237903       0.52819389       0.34012950 </v>
   <v>       0.95241197       0.77817401       0.03490582 </v>
   <v>       0.95237693       0.77819347       0.13642999 </v>
   <v>       0.95237887       0.77819451       0.23826092 </v>
   <v>       0.95237901       0.77819400       0.34017439 </v>
  </varray>
 </structure>
</modeling>
