unknown system                          
           1
    -8.907327    8.907327    0.000000
   -17.814655    0.000000    0.000000
     0.000000    0.000000   44.330263
   Cl   Na   O 
    32   204    32
Direct configuration=     1
   0.20237370  0.02819653  0.08469789
   0.20237666  0.02819407  0.18727457
   0.20237779  0.02819448  0.28908027
   0.20237738  0.02819488  0.38977762
   0.20239690  0.27817532  0.08472702
   0.20237728  0.27819485  0.18727563
   0.20237738  0.27819505  0.28905657
   0.20237746  0.27819486  0.38984288
   0.20237535  0.52819424  0.08469846
   0.20237736  0.52819456  0.18727459
   0.20237778  0.52819461  0.28908022
   0.20237737  0.52819492  0.38977764
   0.20239683  0.77817433  0.08472704
   0.20237661  0.77819605  0.18727540
   0.20238384  0.77818983  0.28905134
   0.20237738  0.77819490  0.38984284
   0.70237551  0.02819440  0.08469835
   0.70237763  0.02819474  0.18727454
   0.70237801  0.02819456  0.28908028
   0.70237734  0.02819489  0.38977762
   0.70239668  0.27817442  0.08472706
   0.70237664  0.27819603  0.18727545
   0.70238373  0.27818988  0.28905134
   0.70237736  0.27819493  0.38984284
   0.70237412  0.52819642  0.08469802
   0.70237700  0.52819418  0.18727462
   0.70237779  0.52819465  0.28908023
   0.70237725  0.52819493  0.38977763
   0.70239760  0.77817464  0.08472708
   0.70237593  0.77819673  0.18727584
   0.70238385  0.77818976  0.28905138
   0.70237732  0.77819498  0.38984284
   0.45237453  0.02819327  0.08545472
   0.20216102  0.15316913  0.03388184
   0.45238276  0.02819077  0.18734958
   0.20235621  0.15443917  0.13640967
   0.45237862  0.02819435  0.28914056
   0.20218683  0.15298058  0.23828717
   0.45238020  0.02819267  0.39017708
   0.20235394  0.15230456  0.34027772
   0.45224132  0.15316808  0.03384611
   0.45238377  0.27818953  0.08548108
   0.20263155  0.40319612  0.03388520
   0.45501479  0.15183525  0.13627944
   0.45237915  0.27819333  0.18732015
   0.20239634  0.40195017  0.13641027
   0.45194280  0.15338353  0.23825211
   0.45237955  0.27819340  0.28917975
   0.20257414  0.40340133  0.23828564
   0.45067343  0.15403153  0.34017169
   0.45237935  0.27819309  0.39024187
   0.20240308  0.40408478  0.34027757
   0.45252669  0.40320380  0.03383697
   0.45238325  0.52818998  0.08545567
   0.20216273  0.65316905  0.03388152
   0.44973433  0.40455260  0.13627930
   0.45236753  0.52819988  0.18735124
   0.20235662  0.65443890  0.13640987
   0.45281390  0.40300621  0.23825276
   0.45237841  0.52819456  0.28914093
   0.20218566  0.65298041  0.23828778
   0.45408396  0.40235710  0.34017184
   0.45238025  0.52819261  0.39017723
   0.20235392  0.65230448  0.34027781
   0.45224226  0.65316799  0.03384646
   0.45236870  0.77819795  0.08548229
   0.20263144  0.90319665  0.03388539
   0.45502530  0.65182840  0.13627871
   0.45238546  0.77819167  0.18732091
   0.20239254  0.90194572  0.13641830
   0.45194390  0.65338319  0.23825271
   0.45237934  0.77819431  0.28917970
   0.20257440  0.90340142  0.23828598
   0.45067358  0.65403148  0.34017177
   0.45237935  0.77819314  0.39024186
   0.20240327  0.90408498  0.34027763
   0.45252591  0.90320403  0.03383702
   0.44973564  0.90455223  0.13627966
   0.45281409  0.90300679  0.23825200
   0.45408388  0.90235723  0.34017170
   0.95238310  0.02819014  0.08545562
   0.70216282  0.15316894  0.03388150
   0.95236749  0.02819988  0.18735122
   0.70235712  0.15443862  0.13640987
   0.95237855  0.02819439  0.28914093
   0.70218590  0.15297987  0.23828790
   0.95238030  0.02819260  0.39017722
   0.70235393  0.15230442  0.34027782
   0.95224245  0.15316785  0.03384649
   0.95236961  0.27819700  0.08548230
   0.70263153  0.40319651  0.03388541
   0.95502539  0.15182805  0.13627874
   0.95238688  0.27819038  0.18732092
   0.70239279  0.40194518  0.13641844
   0.95194487  0.15338254  0.23825287
   0.95238034  0.27819337  0.28917982
   0.70257483  0.40340122  0.23828602
   0.95067362  0.15403146  0.34017176
   0.95237949  0.27819300  0.39024187
   0.70240334  0.40408487  0.34027769
   0.95252608  0.40320396  0.03383703
   0.95237472  0.52819309  0.08545491
   0.70216112  0.65316917  0.03388183
   0.94973331  0.40455325  0.13627922
   0.95238265  0.52819082  0.18734984
   0.70235599  0.65443944  0.13640950
   0.95281427  0.40300649  0.23825256
   0.95237839  0.52819454  0.28914073
   0.70218675  0.65297966  0.23828796
   0.95408424  0.40235703  0.34017176
   0.95238042  0.52819255  0.39017718
   0.70235401  0.65230443  0.34027782
   0.95224122  0.65316808  0.03384614
   0.95238282  0.77819047  0.08548102
   0.70263160  0.90319617  0.03388517
   0.95501449  0.65183565  0.13627928
   0.95237770  0.77819463  0.18732015
   0.70239636  0.90194921  0.13641063
   0.95194442  0.65338283  0.23825291
   0.95237857  0.77819433  0.28917970
   0.70257010  0.90340996  0.23828688
   0.95067336  0.65403153  0.34017177
   0.95237944  0.77819306  0.39024187
   0.70240311  0.90408501  0.34027757
   0.95252662  0.90320388  0.03383693
   0.94973334  0.90455328  0.13627915
   0.95281382  0.90300647  0.23825275
   0.95408369  0.90235724  0.34017180
   0.19650821  0.05584649  0.50189025
   0.19609966  0.22294976  0.45663173
   0.19659190  0.05577125  0.59417460
   0.19667559  0.22243015  0.54612254
   0.19617508  0.05604451  0.68801744
   0.19634297  0.22260662  0.64175938
   0.19609023  0.05617897  0.78108799
   0.19613379  0.22277160  0.73488010
   0.19621893  0.05600792  0.87663884
   0.19632969  0.22275413  0.82869156
   0.19609490  0.05613371  0.96601986
   0.19632769  0.22256505  0.92091747
   0.52913080  0.05493661  0.50209615
   0.53019593  0.22178629  0.45669784
   0.52863531  0.05509525  0.59441365
   0.53065393  0.22056179  0.54673112
   0.52998661  0.05410255  0.68768252
   0.52973333  0.22111437  0.64130397
   0.52893241  0.05494423  0.78148882
   0.52996363  0.22071993  0.73520057
   0.53040394  0.05400433  0.87608122
   0.52877800  0.22147428  0.82833761
   0.53051987  0.05505132  0.96612650
   0.52946491  0.22143017  0.92062791
   0.19650018  0.38917563  0.50188017
   0.19599485  0.55646784  0.45667097
   0.19644069  0.38922279  0.59419814
   0.19668037  0.55578873  0.54612070
   0.19623863  0.38937817  0.68797042
   0.19646519  0.55591029  0.64176416
   0.19611384  0.38947776  0.78110362
   0.19614530  0.55615951  0.73484839
   0.19634573  0.38925695  0.87660017
   0.19610153  0.55620323  0.82872483
   0.19639894  0.38922659  0.96604182
   0.19638455  0.55589021  0.92093517
   0.86380573  0.05694935  0.50208614
   0.86219032  0.22352306  0.45672357
   0.86446483  0.05647852  0.59440903
   0.86225301  0.22433869  0.54675908
   0.86239591  0.05780619  0.68766064
   0.86321560  0.22377884  0.64133504
   0.86300039  0.05705879  0.78158548
   0.86235033  0.22452521  0.73524283
   0.86236556  0.05762761  0.87608151
   0.86426156  0.22330413  0.82846709
   0.86251032  0.05655588  0.96616307
   0.86311110  0.22366741  0.92075110
   0.52910608  0.38826729  0.50210197
   0.53077863  0.55481261  0.45675755
   0.52868162  0.38842251  0.59441817
   0.53096304  0.55384283  0.54668800
   0.53013257  0.38734763  0.68761223
   0.53013299  0.55464094  0.64136568
   0.52927558  0.38798016  0.78156350
   0.53018867  0.55384242  0.73518313
   0.53042629  0.38744868  0.87610562
   0.52874268  0.55484130  0.82842959
   0.53035185  0.38848626  0.96612611
   0.52928327  0.55482823  0.92073712
   0.19646523  0.72259497  0.50190674
   0.19591036  0.88971445  0.45667570
   0.19673972  0.72234278  0.59419119
   0.19670619  0.88900084  0.54615678
   0.19621027  0.72263335  0.68799601
   0.19656279  0.88911000  0.64179970
   0.19625060  0.72282908  0.78108237
   0.19625696  0.88946955  0.73489111
   0.19654602  0.72263252  0.87666973
   0.19621302  0.88946292  0.82868505
   0.19605340  0.72268553  0.96603569
   0.19642907  0.88919902  0.92090664
   0.86390479  0.39019249  0.50211213
   0.86227775  0.55692185  0.45672860
   0.86447378  0.38998047  0.59438182
   0.86223852  0.55779055  0.54678253
   0.86266914  0.39111367  0.68766621
   0.86310204  0.55727835  0.64134375
   0.86300932  0.39015997  0.78161290
   0.86239098  0.55783078  0.73523195
   0.86255427  0.39081417  0.87613848
   0.86417408  0.55661774  0.82844471
   0.86240831  0.39013810  0.96612418
   0.86338950  0.55695805  0.92072242
   0.52928316  0.72165518  0.50213919
   0.53043642  0.88829044  0.45670925
   0.52879995  0.72167787  0.59441054
   0.53086533  0.88721556  0.54670024
   0.52981728  0.72092447  0.68770761
   0.52979559  0.88787412  0.64133911
   0.52929464  0.72133768  0.78156040
   0.53012795  0.88730714  0.73516325
   0.53037163  0.72084957  0.87607679
   0.52837033  0.88841839  0.82836385
   0.53043964  0.72171589  0.96614427
   0.52931415  0.88815439  0.92070699
   0.86383135  0.72363013  0.50210623
   0.86223183  0.89016787  0.45672677
   0.86440310  0.72331152  0.59441485
   0.86209489  0.89102896  0.54678617
   0.86255028  0.72451267  0.68768744
   0.86317817  0.89052587  0.64133789
   0.86288679  0.72369741  0.78158113
   0.86249488  0.89100212  0.73525112
   0.86222036  0.72433126  0.87611736
   0.86414647  0.88997587  0.82845099
   0.86251738  0.72330030  0.96615891
   0.86300371  0.89054480  0.92071513
   0.45241106  0.02817322  0.03489963
   0.45237844  0.02819199  0.13642685
   0.45237872  0.02819455  0.23826700
   0.45237954  0.02819340  0.34012931
   0.45241202  0.27817398  0.03490584
   0.45237733  0.27819306  0.13643003
   0.45237899  0.27819396  0.23826097
   0.45237948  0.27819373  0.34017440
   0.45241159  0.52817308  0.03490009
   0.45237660  0.52819204  0.13642787
   0.45237892  0.52819406  0.23826787
   0.45237944  0.52819346  0.34012948
   0.45241106  0.77817471  0.03490644
   0.45237453  0.77819378  0.13643084
   0.45237933  0.77819443  0.23826119
   0.45237908  0.77819400  0.34017438
   0.95241160  0.02817307  0.03490007
   0.95237667  0.02819196  0.13642786
   0.95237877  0.02819420  0.23826787
   0.95237947  0.02819341  0.34012948
   0.95241107  0.27817468  0.03490646
   0.95237477  0.27819338  0.13643087
   0.95238012  0.27819385  0.23826124
   0.95237909  0.27819372  0.34017444
   0.95241104  0.52817324  0.03489973
   0.95237823  0.52819218  0.13642695
   0.95237946  0.52819378  0.23826734
   0.95237903  0.52819389  0.34012950
   0.95241197  0.77817401  0.03490582
   0.95237693  0.77819347  0.13642999
   0.95237887  0.77819451  0.23826092
   0.95237901  0.77819400  0.34017439
