  40  40   0   0
  0.1728539E+02  0.4457379E-09  0.6303685E-09  0.3480008E-08  0.5000000E-15
  1.000000000000000E-004
  CAR 
 unknown system                          
     30.51798754    -19.53203572  301      4.31107267      1.00000000
    -19.532  0.0000E+00  0.0000E+00
    -19.365  0.0000E+00  0.0000E+00
    -19.198  0.0000E+00  0.0000E+00
    -19.032  0.0000E+00  0.0000E+00
    -18.865  0.0000E+00  0.0000E+00
    -18.698  0.0000E+00  0.0000E+00
    -18.531  0.0000E+00  0.0000E+00
    -18.364  0.0000E+00  0.0000E+00
    -18.197  0.0000E+00  0.0000E+00
    -18.031  0.0000E+00  0.0000E+00
    -17.864  0.0000E+00  0.0000E+00
    -17.697  0.3321E-09  0.5540E-10
    -17.530  0.7804E-04  0.1302E-04
    -17.363  0.1177E+00  0.1966E-01
    -17.196  0.3683E+01  0.6341E+00
    -17.030  0.7435E+01  0.1874E+01
    -16.863  0.4421E+01  0.2612E+01
    -16.696  0.7630E+01  0.3885E+01
    -16.529  0.6887E+00  0.4000E+01
    -16.362  0.1033E+00  0.4017E+01
    -16.195  0.3912E+01  0.4670E+01
    -16.029  0.7308E+01  0.5889E+01
    -15.862  0.6648E+00  0.6000E+01
    -15.695  0.1161E-02  0.6000E+01
    -15.528  0.2021E+00  0.6034E+01
    -15.361  0.4923E+01  0.6855E+01
    -15.194  0.6453E+01  0.7932E+01
    -15.028  0.4098E+00  0.8000E+01
    -14.861  0.4756E-03  0.8000E+01
    -14.694  0.9278E-01  0.8015E+01
    -14.527  0.3981E+01  0.8680E+01
    -14.360  0.7333E+01  0.9903E+01
    -14.193  0.5808E+00  0.1000E+02
    -14.027  0.5590E-02  0.1000E+02
    -13.860  0.1285E+01  0.1022E+02
    -13.693  0.8238E+01  0.1159E+02
    -13.526  0.2447E+01  0.1200E+02
    -13.359  0.2036E-01  0.1200E+02
    -13.192  0.1090E+01  0.1218E+02
    -13.026  0.7437E+01  0.1342E+02
    -12.859  0.3407E+01  0.1399E+02
    -12.692  0.4740E-01  0.1400E+02
    -12.525  0.5523E-05  0.1400E+02
    -12.358  0.3162E-11  0.1400E+02
    -12.191  0.0000E+00  0.1400E+02
    -12.025  0.0000E+00  0.1400E+02
    -11.858  0.7085E-09  0.1400E+02
    -11.691  0.1940E-03  0.1400E+02
    -11.524  0.3521E+00  0.1406E+02
    -11.357  0.7395E+01  0.1529E+02
    -11.190  0.4194E+01  0.1599E+02
    -11.024  0.4662E-01  0.1600E+02
    -10.857  0.3956E-05  0.1600E+02
    -10.690  0.2244E-08  0.1600E+02
    -10.523  0.5848E-03  0.1600E+02
    -10.356  0.8783E+00  0.1615E+02
    -10.189  0.1637E+02  0.1888E+02
    -10.023  0.1698E+02  0.2171E+02
     -9.856  0.1737E+01  0.2200E+02
     -9.689  0.3372E-02  0.2200E+02
     -9.522  0.7855E-02  0.2200E+02
     -9.355  0.2198E+01  0.2237E+02
     -9.188  0.8847E+01  0.2384E+02
     -9.022  0.9337E+00  0.2400E+02
     -8.855  0.1068E-02  0.2400E+02
     -8.688  0.6885E-08  0.2400E+02
     -8.521  0.0000E+00  0.2400E+02
     -8.354  0.0000E+00  0.2400E+02
     -8.187  0.0000E+00  0.2400E+02
     -8.021  0.6168E-09  0.2400E+02
     -7.854  0.1657E-03  0.2400E+02
     -7.687  0.2880E+00  0.2405E+02
     -7.520  0.6695E+01  0.2517E+02
     -7.353  0.5337E+01  0.2606E+02
     -7.186  0.8152E+01  0.2742E+02
     -7.020  0.3482E+01  0.2800E+02
     -6.853  0.2204E-01  0.2800E+02
     -6.686  0.8523E-06  0.2800E+02
     -6.519  0.1523E-12  0.2800E+02
     -6.352  0.1783E-08  0.2800E+02
     -6.185  0.4804E-03  0.2800E+02
     -6.019  0.6733E+00  0.2811E+02
     -5.852  0.9145E+01  0.2964E+02
     -5.685  0.1196E+02  0.3163E+02
     -5.518  0.7062E+01  0.3281E+02
     -5.351  0.5710E+01  0.3376E+02
     -5.184  0.5205E+01  0.3463E+02
     -5.018  0.1158E+02  0.3656E+02
     -4.851  0.7731E+01  0.3785E+02
     -4.684  0.9595E+01  0.3945E+02
     -4.517  0.3272E+01  0.4000E+02
     -4.350  0.3246E+01  0.4054E+02
     -4.183  0.1413E+02  0.4290E+02
     -4.017  0.1497E+02  0.4540E+02
     -3.850  0.3550E+01  0.4599E+02
     -3.683  0.2351E+01  0.4638E+02
     -3.516  0.5645E+01  0.4732E+02
     -3.349  0.6698E+01  0.4844E+02
     -3.182  0.6324E+01  0.4950E+02
     -3.016  0.3916E+01  0.5015E+02
     -2.849  0.6143E+01  0.5117E+02
     -2.682  0.7055E+01  0.5235E+02
     -2.515  0.8508E+01  0.5377E+02
     -2.348  0.1324E+02  0.5598E+02
     -2.181  0.1189E+02  0.5796E+02
     -2.015  0.1149E+02  0.5988E+02
     -1.848  0.6223E+01  0.6092E+02
     -1.681  0.4344E+01  0.6164E+02
     -1.514  0.4739E+01  0.6243E+02
     -1.347  0.1570E+01  0.6269E+02
     -1.180  0.3846E+01  0.6333E+02
     -1.014  0.3661E+01  0.6395E+02
     -0.847  0.2037E+01  0.6429E+02
     -0.680  0.2697E+01  0.6474E+02
     -0.513  0.8245E+01  0.6611E+02
     -0.346  0.9896E+01  0.6776E+02
     -0.179  0.5217E+01  0.6863E+02
     -0.013  0.7967E+01  0.6996E+02
      0.154  0.1418E+02  0.7233E+02
      0.321  0.1824E+02  0.7537E+02
      0.488  0.1447E+02  0.7779E+02
      0.655  0.1336E+02  0.8001E+02
      0.822  0.3251E+01  0.8056E+02
      0.988  0.6333E+01  0.8161E+02
      1.155  0.8648E+01  0.8306E+02
      1.322  0.1319E+02  0.8526E+02
      1.489  0.1697E+02  0.8809E+02
      1.656  0.2334E+02  0.9198E+02
      1.823  0.1189E+02  0.9396E+02
      1.989  0.8726E+01  0.9542E+02
      2.156  0.1143E+02  0.9733E+02
      2.323  0.1503E+02  0.9984E+02
      2.490  0.1041E+02  0.1016E+03
      2.657  0.1011E+02  0.1033E+03
      2.824  0.9424E+01  0.1048E+03
      2.990  0.8519E+01  0.1063E+03
      3.157  0.1038E+02  0.1080E+03
      3.324  0.1739E+02  0.1109E+03
      3.491  0.2010E+02  0.1142E+03
      3.658  0.1121E+02  0.1161E+03
      3.825  0.1451E+02  0.1185E+03
      3.991  0.1480E+02  0.1210E+03
      4.158  0.2199E+02  0.1247E+03
      4.325  0.2202E+02  0.1283E+03
      4.492  0.2040E+02  0.1317E+03
      4.659  0.1799E+02  0.1347E+03
      4.826  0.2874E+02  0.1395E+03
      4.992  0.2756E+02  0.1441E+03
      5.159  0.7960E+01  0.1455E+03
      5.326  0.4276E+01  0.1462E+03
      5.493  0.1063E+02  0.1480E+03
      5.660  0.4116E+01  0.1486E+03
      5.827  0.5424E+01  0.1495E+03
      5.993  0.8868E+01  0.1510E+03
      6.160  0.4608E+01  0.1518E+03
      6.327  0.7616E+01  0.1531E+03
      6.494  0.1246E+02  0.1551E+03
      6.661  0.6175E+01  0.1562E+03
      6.828  0.1644E+02  0.1589E+03
      6.994  0.1192E+02  0.1609E+03
      7.161  0.6353E+01  0.1620E+03
      7.328  0.3540E+01  0.1626E+03
      7.495  0.4372E+01  0.1633E+03
      7.662  0.4009E+01  0.1640E+03
      7.829  0.4076E+01  0.1646E+03
      7.995  0.1798E+01  0.1649E+03
      8.162  0.1878E+01  0.1652E+03
      8.329  0.4043E+01  0.1659E+03
      8.496  0.4877E+00  0.1660E+03
      8.663  0.5972E-03  0.1660E+03
      8.830  0.7549E-08  0.1660E+03
      8.996  0.7711E-03  0.1660E+03
      9.163  0.8458E+00  0.1661E+03
      9.330  0.8892E+01  0.1676E+03
      9.497  0.2243E+01  0.1680E+03
      9.664  0.7061E-02  0.1680E+03
      9.831  0.1868E-04  0.1680E+03
      9.997  0.1267E+00  0.1680E+03
     10.164  0.6124E+01  0.1690E+03
     10.331  0.5642E+01  0.1700E+03
     10.498  0.9489E-01  0.1700E+03
     10.665  0.1094E-04  0.1700E+03
     10.832  0.5980E-11  0.1700E+03
     10.998  0.0000E+00  0.1700E+03
     11.165  0.0000E+00  0.1700E+03
     11.332  0.0000E+00  0.1700E+03
     11.499  0.0000E+00  0.1700E+03
     11.666  0.0000E+00  0.1700E+03
     11.833  0.0000E+00  0.1700E+03
     11.999  0.0000E+00  0.1700E+03
     12.166  0.0000E+00  0.1700E+03
     12.333  0.0000E+00  0.1700E+03
     12.500  0.0000E+00  0.1700E+03
     12.667  0.0000E+00  0.1700E+03
     12.834  0.0000E+00  0.1700E+03
     13.000  0.0000E+00  0.1700E+03
     13.167  0.0000E+00  0.1700E+03
     13.334  0.0000E+00  0.1700E+03
     13.501  0.0000E+00  0.1700E+03
     13.668  0.0000E+00  0.1700E+03
     13.835  0.0000E+00  0.1700E+03
     14.001  0.0000E+00  0.1700E+03
     14.168  0.0000E+00  0.1700E+03
     14.335  0.0000E+00  0.1700E+03
     14.502  0.0000E+00  0.1700E+03
     14.669  0.0000E+00  0.1700E+03
     14.836  0.0000E+00  0.1700E+03
     15.002  0.0000E+00  0.1700E+03
     15.169  0.0000E+00  0.1700E+03
     15.336  0.0000E+00  0.1700E+03
     15.503  0.0000E+00  0.1700E+03
     15.670  0.0000E+00  0.1700E+03
     15.837  0.0000E+00  0.1700E+03
     16.003  0.0000E+00  0.1700E+03
     16.170  0.0000E+00  0.1700E+03
     16.337  0.0000E+00  0.1700E+03
     16.504  0.0000E+00  0.1700E+03
     16.671  0.0000E+00  0.1700E+03
     16.838  0.0000E+00  0.1700E+03
     17.004  0.0000E+00  0.1700E+03
     17.171  0.0000E+00  0.1700E+03
     17.338  0.0000E+00  0.1700E+03
     17.505  0.0000E+00  0.1700E+03
     17.672  0.0000E+00  0.1700E+03
     17.839  0.0000E+00  0.1700E+03
     18.005  0.0000E+00  0.1700E+03
     18.172  0.0000E+00  0.1700E+03
     18.339  0.0000E+00  0.1700E+03
     18.506  0.0000E+00  0.1700E+03
     18.673  0.0000E+00  0.1700E+03
     18.840  0.0000E+00  0.1700E+03
     19.006  0.0000E+00  0.1700E+03
     19.173  0.0000E+00  0.1700E+03
     19.340  0.0000E+00  0.1700E+03
     19.507  0.0000E+00  0.1700E+03
     19.674  0.0000E+00  0.1700E+03
     19.841  0.0000E+00  0.1700E+03
     20.007  0.0000E+00  0.1700E+03
     20.174  0.0000E+00  0.1700E+03
     20.341  0.0000E+00  0.1700E+03
     20.508  0.0000E+00  0.1700E+03
     20.675  0.0000E+00  0.1700E+03
     20.842  0.0000E+00  0.1700E+03
     21.008  0.0000E+00  0.1700E+03
     21.175  0.0000E+00  0.1700E+03
     21.342  0.0000E+00  0.1700E+03
     21.509  0.0000E+00  0.1700E+03
     21.676  0.0000E+00  0.1700E+03
     21.843  0.0000E+00  0.1700E+03
     22.009  0.0000E+00  0.1700E+03
     22.176  0.0000E+00  0.1700E+03
     22.343  0.0000E+00  0.1700E+03
     22.510  0.0000E+00  0.1700E+03
     22.677  0.0000E+00  0.1700E+03
     22.844  0.0000E+00  0.1700E+03
     23.010  0.0000E+00  0.1700E+03
     23.177  0.0000E+00  0.1700E+03
     23.344  0.0000E+00  0.1700E+03
     23.511  0.0000E+00  0.1700E+03
     23.678  0.0000E+00  0.1700E+03
     23.845  0.0000E+00  0.1700E+03
     24.011  0.0000E+00  0.1700E+03
     24.178  0.0000E+00  0.1700E+03
     24.345  0.0000E+00  0.1700E+03
     24.512  0.0000E+00  0.1700E+03
     24.679  0.0000E+00  0.1700E+03
     24.846  0.0000E+00  0.1700E+03
     25.012  0.0000E+00  0.1700E+03
     25.179  0.0000E+00  0.1700E+03
     25.346  0.0000E+00  0.1700E+03
     25.513  0.0000E+00  0.1700E+03
     25.680  0.0000E+00  0.1700E+03
     25.847  0.0000E+00  0.1700E+03
     26.013  0.0000E+00  0.1700E+03
     26.180  0.0000E+00  0.1700E+03
     26.347  0.0000E+00  0.1700E+03
     26.514  0.0000E+00  0.1700E+03
     26.681  0.0000E+00  0.1700E+03
     26.848  0.0000E+00  0.1700E+03
     27.014  0.0000E+00  0.1700E+03
     27.181  0.0000E+00  0.1700E+03
     27.348  0.1573E-08  0.1700E+03
     27.515  0.4516E-03  0.1700E+03
     27.682  0.6900E+00  0.1701E+03
     27.849  0.1203E+02  0.1721E+03
     28.015  0.1067E+02  0.1739E+03
     28.182  0.3227E+01  0.1744E+03
     28.349  0.8662E+01  0.1759E+03
     28.516  0.6892E+00  0.1760E+03
     28.683  0.5192E-03  0.1760E+03
     28.850  0.2078E-08  0.1760E+03
     29.016  0.0000E+00  0.1760E+03
     29.183  0.0000E+00  0.1760E+03
     29.350  0.0000E+00  0.1760E+03
     29.517  0.0000E+00  0.1760E+03
     29.684  0.0000E+00  0.1760E+03
     29.851  0.0000E+00  0.1760E+03
     30.017  0.0000E+00  0.1760E+03
     30.184  0.0000E+00  0.1760E+03
     30.351  0.0000E+00  0.1760E+03
     30.518  0.0000E+00  0.1760E+03
