   40   40    1    1
  0.1728539E+02  0.4457378E-09  0.6303685E-09  0.3480008E-08  0.5000000E-15
  1.000000000000000E-004
  CAR 
 unknown system                          
    128      4     88
 
  0.0000000E+00  0.0000000E+00  0.0000000E+00  0.1111111E+00
    1      -17.257035   1.000000
    2      -16.883776   1.000000
    3      -16.184325   1.000000
    4      -15.361140   1.000000
    5      -14.522279   1.000000
    6      -13.813518   1.000000
    7      -13.173806   1.000000
    8      -11.422056   1.000000
    9      -10.247811   1.000000
   10      -10.194610   1.000000
   11      -10.102303   1.000000
   12       -9.310343   1.000000
   13       -7.529104   1.000000
   14       -7.218485   1.000000
   15       -5.907193   1.000000
   16       -5.272532   1.000000
   17       -5.067084   1.000000
   18       -5.005842   1.000000
   19       -4.742725   1.000000
   20       -4.697731   1.000000
   21       -4.197896   1.000000
   22       -4.155122   1.000000
   23       -4.146342   1.000000
   24       -3.424785   1.000000
   25       -3.218638   1.000000
   26       -2.710548   1.000000
   27       -2.598632   1.000000
   28       -2.387540   1.000000
   29       -2.063512   1.000000
   30       -1.944823   1.000000
   31       -1.711772   1.000000
   32       -1.624557   1.000000
   33       -0.891401   1.000000
   34       -0.584020   1.000000
   35       -0.136710   1.000000
   36        0.210021   1.000000
   37        0.269056   1.000000
   38        0.314371   1.000000
   39        0.553712   1.000000
   40        0.570401   1.000000
   41        1.020665   1.000000
   42        1.140243   1.000000
   43        1.432416   1.000000
   44        1.455695   1.000000
   45        1.580582   1.000000
   46        1.630325   1.000000
   47        1.730054   1.000000
   48        2.012503   1.000000
   49        2.192827   1.000000
   50        2.397302   1.000000
   51        2.605627   1.000000
   52        2.785730   1.000000
   53        2.803997   1.000000
   54        3.011260   1.000000
   55        3.243539   1.000000
   56        3.384173   1.000000
   57        3.458587   1.000000
   58        3.489577   1.000000
   59        3.653291   1.000000
   60        3.790659   1.000000
   61        4.007134   0.999991
   62        4.055585   0.999849
   63        4.094458   0.998906
   64        4.236749   0.853391
   65        4.336254   0.360878
   66        4.397915   0.109698
   67        4.538856   0.000638
   68        4.593463   0.000033
   69        4.657038   0.000000
   70        4.769518   0.000000
   71        4.794197   0.000000
   72        4.892077   0.000000
   73        5.138356   0.000000
   74        5.324358   0.000000
   75        5.421579   0.000000
   76        5.864152   0.000000
   77        6.003487   0.000000
   78        6.407314   0.000000
   79        6.532419   0.000000
   80        6.757990   0.000000
   81        6.785482   0.000000
   82        7.323613   0.000000
   83        7.585376   0.000000
   84        9.269179   0.000000
   85       10.159591   0.000000
   86       27.795935   0.000000
   87       27.864706   0.000000
   88       28.226448   0.000000
 
  0.3333333E+00  0.0000000E+00  0.0000000E+00  0.2222222E+00
    1      -17.167084   1.000000
    2      -16.798019   1.000000
    3      -16.102694   1.000000
    4      -15.282450   1.000000
    5      -14.444348   1.000000
    6      -13.734406   1.000000
    7      -13.084519   1.000000
    8      -11.385181   1.000000
    9      -10.243391   1.000000
   10      -10.193035   1.000000
   11      -10.098691   1.000000
   12       -9.282175   1.000000
   13       -7.548557   1.000000
   14       -7.224701   1.000000
   15       -5.902289   1.000000
   16       -5.725837   1.000000
   17       -5.480997   1.000000
   18       -5.156720   1.000000
   19       -5.039419   1.000000
   20       -4.807023   1.000000
   21       -4.695538   1.000000
   22       -4.181618   1.000000
   23       -4.017805   1.000000
   24       -3.981836   1.000000
   25       -3.299475   1.000000
   26       -3.085055   1.000000
   27       -2.638773   1.000000
   28       -2.429011   1.000000
   29       -2.299257   1.000000
   30       -2.158131   1.000000
   31       -1.772924   1.000000
   32       -1.089657   1.000000
   33       -0.537525   1.000000
   34       -0.480805   1.000000
   35       -0.139476   1.000000
   36        0.063838   1.000000
   37        0.139240   1.000000
   38        0.279271   1.000000
   39        0.385232   1.000000
   40        0.539179   1.000000
   41        0.873353   1.000000
   42        1.127367   1.000000
   43        1.248226   1.000000
   44        1.446811   1.000000
   45        1.585895   1.000000
   46        1.631169   1.000000
   47        1.582314   1.000000
   48        1.965333   1.000000
   49        2.173526   1.000000
   50        2.228300   1.000000
   51        2.323019   1.000000
   52        2.466606   1.000000
   53        2.808010   1.000000
   54        3.116669   1.000000
   55        3.241297   1.000000
   56        3.339367   1.000000
   57        3.424808   1.000000
   58        3.540511   1.000000
   59        3.814533   1.000000
   60        3.830072   1.000000
   61        4.038355   0.999943
   62        4.043962   0.999921
   63        4.115232   0.997194
   64        4.275498   0.692552
   65        4.405231   0.091495
   66        4.518699   0.001661
   67        4.608578   0.000013
   68        4.629721   0.000003
   69        4.732155   0.000000
   70        4.830297   0.000000
   71        4.852207   0.000000
   72        4.911412   0.000000
   73        5.018474   0.000000
   74        5.584137   0.000000
   75        5.771709   0.000000
   76        6.274573   0.000000
   77        6.337479   0.000000
   78        6.447424   0.000000
   79        6.770948   0.000000
   80        6.824325   0.000000
   81        7.003438   0.000000
   82        7.064638   0.000000
   83        7.521195   0.000000
   84        9.271915   0.000000
   85       10.162710   0.000000
   86       27.797395   0.000000
   87       27.913264   0.000000
   88       28.227901   0.000000
 
  0.0000000E+00  0.3333333E+00  0.0000000E+00  0.2222222E+00
    1      -17.192370   1.000000
    2      -16.876294   1.000000
    3      -16.232278   1.000000
    4      -15.420351   1.000000
    5      -14.559235   1.000000
    6      -13.811023   1.000000
    7      -13.112732   1.000000
    8      -11.404007   1.000000
    9      -10.246788   1.000000
   10      -10.199380   1.000000
   11      -10.099627   1.000000
   12       -9.308765   1.000000
   13       -7.579241   1.000000
   14       -7.226186   1.000000
   15       -5.912147   1.000000
   16       -5.711416   1.000000
   17       -5.174831   1.000000
   18       -5.013007   1.000000
   19       -4.699889   1.000000
   20       -4.351666   1.000000
   21       -4.197726   1.000000
   22       -4.146453   1.000000
   23       -3.693291   1.000000
   24       -3.426968   1.000000
   25       -2.991370   1.000000
   26       -2.710918   1.000000
   27       -2.478442   1.000000
   28       -2.387855   1.000000
   29       -2.088633   1.000000
   30       -2.076154   1.000000
   31       -1.650937   1.000000
   32       -1.518944   1.000000
   33       -0.804313   1.000000
   34       -0.463534   1.000000
   35       -0.324323   1.000000
   36       -0.017886   1.000000
   37        0.270131   1.000000
   38        0.319081   1.000000
   39        0.514591   1.000000
   40        0.558732   1.000000
   41        0.663439   1.000000
   42        0.963936   1.000000
   43        1.194239   1.000000
   44        1.369134   1.000000
   45        1.449254   1.000000
   46        1.587458   1.000000
   47        1.624895   1.000000
   48        1.902661   1.000000
   49        2.002086   1.000000
   50        2.163075   1.000000
   51        2.390232   1.000000
   52        2.522795   1.000000
   53        2.654270   1.000000
   54        3.025572   1.000000
   55        3.300642   1.000000
   56        3.357799   1.000000
   57        3.545222   1.000000
   58        3.536675   1.000000
   59        3.799463   1.000000
   60        4.073937   0.999601
   61        4.066772   0.999725
   62        4.183825   0.964034
   63        4.268921   0.724452
   64        4.281027   0.664549
   65        4.363964   0.227230
   66        4.673866   0.000000
   67        4.719327   0.000000
   68        4.758344   0.000000
   69        4.776286   0.000000
   70        4.829161   0.000000
   71        4.892370   0.000000
   72        4.955471   0.000000
   73        5.284533   0.000000
   74        5.405118   0.000000
   75        5.441147   0.000000
   76        5.803371   0.000000
   77        6.316374   0.000000
   78        6.345769   0.000000
   79        6.525657   0.000000
   80        6.774786   0.000000
   81        6.778120   0.000000
   82        6.960001   0.000000
   83        7.978773   0.000000
   84        9.265146   0.000000
   85       10.159795   0.000000
   86       27.794001   0.000000
   87       27.848565   0.000000
   88       28.240256   0.000000
 
  0.3333333E+00  0.3333333E+00  0.0000000E+00  0.4444444E+00
    1      -17.107240   1.000000
    2      -16.791292   1.000000
    3      -16.146980   1.000000
    4      -15.337978   1.000000
    5      -14.478860   1.000000
    6      -13.732432   1.000000
    7      -13.027576   1.000000
    8      -11.365904   1.000000
    9      -10.247950   1.000000
   10      -10.199356   1.000000
   11      -10.099492   1.000000
   12       -9.280383   1.000000
   13       -7.510270   1.000000
   14       -7.226294   1.000000
   15       -5.904767   1.000000
   16       -5.739152   1.000000
   17       -5.662703   1.000000
   18       -5.390967   1.000000
   19       -5.077244   1.000000
   20       -4.837889   1.000000
   21       -4.318076   1.000000
   22       -4.188559   1.000000
   23       -4.139319   1.000000
   24       -3.609312   1.000000
   25       -3.343898   1.000000
   26       -2.908986   1.000000
   27       -2.679063   1.000000
   28       -2.408297   1.000000
   29       -2.318413   1.000000
   30       -2.177297   1.000000
   31       -1.982163   1.000000
   32       -1.217814   1.000000
   33       -0.571467   1.000000
   34       -0.360970   1.000000
   35        0.063729   1.000000
   36       -0.012226   1.000000
   37        0.185061   1.000000
   38        0.280129   1.000000
   39        0.381507   1.000000
   40        0.555716   1.000000
   41        1.001882   1.000000
   42        1.291918   1.000000
   43        1.301750   1.000000
   44        1.443637   1.000000
   45        1.583516   1.000000
   46        1.625158   1.000000
   47        1.731190   1.000000
   48        1.986232   1.000000
   49        2.178889   1.000000
   50        2.271907   1.000000
   51        2.518641   1.000000
   52        2.707397   1.000000
   53        2.908766   1.000000
   54        3.066493   1.000000
   55        3.239403   1.000000
   56        3.308158   1.000000
   57        3.356472   1.000000
   58        3.487409   1.000000
   59        3.788315   1.000000
   60        3.828817   1.000000
   61        3.839623   1.000000
   62        4.097608   0.998731
   63        4.122699   0.996139
   64        4.266949   0.733688
   65        4.326513   0.413573
   66        4.407870   0.085512
   67        4.474740   0.010317
   68        4.615424   0.000008
   69        4.749808   0.000000
   70        4.812918   0.000000
   71        4.878676   0.000000
   72        4.899699   0.000000
   73        5.006605   0.000000
   74        5.417335   0.000000
   75        5.885768   0.000000
   76        6.018079   0.000000
   77        6.363507   0.000000
   78        6.695399   0.000000
   79        6.788611   0.000000
   80        6.972158   0.000000
   81        7.330176   0.000000
   82        7.711479   0.000000
   83        8.235050   0.000000
   84        9.265859   0.000000
   85       10.160002   0.000000
   86       27.794302   0.000000
   87       27.908457   0.000000
   88       28.242986   0.000000
