 vasp.6.2.1 16May21 (build Dec 23 2021 00:35:04) complex                        
  
 executed on             LinuxIFC date 2023.03.08  11:55:15
 running on  128 total cores
 distrk:  each k-point on  128 cores,    1 groups
 distr:  one band on NCORE=  16 cores,    8 groups


--------------------------------------------------------------------------------------------------------


 INCAR:
   ENCUT = 400.000000
   KSPACING = 0.500000
   SIGMA = 0.100000
   EDIFF = 1.00e-08
   EDIFFG = -1.00e-02
   ALGO = Fast
   GGA = PE
   PREC = Normal
   IBRION = -1
   IDIPOL = 3
   ISIF = 3
   ISMEAR = 0
   ISPIN = 0
   LMAXMIX = 6
   NELM = 150
   NPAR = 8
   NSW = 0
   NWRITE = 1
   DIPOL = 0.2573 0.7427 0.5076
   KGAMMA = .TRUE.
   LASPH = .TRUE.
   LCHARG = .FALSE.
   LDIPOL = .TRUE.
   LWAVE = .FALSE.
   LREAL = AUTO

 POTCAR:    PAW_PBE Na 08Apr2002                  
 POTCAR:    PAW_PBE O 08Apr2002                   
 POTCAR:    PAW_PBE Cl 06Sep2000                  
 POTCAR:    PAW_PBE Na 08Apr2002                  
  local pseudopotential read in
  partial core-charges read in
  partial kinetic energy density read in
  atomic valenz-charges read in
  non local Contribution for L=           0  read in
    real space projection operators read in
  non local Contribution for L=           0  read in
    real space projection operators read in
  non local Contribution for L=           1  read in
    real space projection operators read in
    PAW grid and wavefunctions read in
 
   number of l-projection  operators is LMAX  =           3
   number of lm-projection operators is LMMAX =           5
 
 POTCAR:    PAW_PBE O 08Apr2002                   
  local pseudopotential read in
  partial core-charges read in
  partial kinetic energy density read in
  kinetic energy density of atom read in
  atomic valenz-charges read in
  non local Contribution for L=           0  read in
    real space projection operators read in
  non local Contribution for L=           0  read in
    real space projection operators read in
  non local Contribution for L=           1  read in
    real space projection operators read in
  non local Contribution for L=           1  read in
    real space projection operators read in
    PAW grid and wavefunctions read in
 
   number of l-projection  operators is LMAX  =           4
   number of lm-projection operators is LMMAX =           8
 
 POTCAR:    PAW_PBE Cl 06Sep2000                  
  local pseudopotential read in
  partial core-charges read in
  partial kinetic energy density read in
  atomic valenz-charges read in
  non local Contribution for L=           0  read in
    real space projection operators read in
  non local Contribution for L=           0  read in
    real space projection operators read in
  non local Contribution for L=           1  read in
    real space projection operators read in
  non local Contribution for L=           1  read in
    real space projection operators read in
    PAW grid and wavefunctions read in
 
   number of l-projection  operators is LMAX  =           4
   number of lm-projection operators is LMMAX =           8
 
 Optimization of the real space projectors (new method)

 maximal supplied QI-value         = 17.01
 optimisation between [QCUT,QGAM] = [ 10.20, 20.41] = [ 29.16,116.64] Ry 
 Optimized for a Real-space Cutoff    1.19 Angstroem

   l    n(q)    QCUT    max X(q) W(low)/X(q) W(high)/X(q)  e(spline) 
   0      7    10.205    45.123    0.22E-03    0.82E-03    0.11E-06
   0      7    10.205    12.364    0.17E-03    0.61E-03    0.75E-07
   1      7    10.205     8.302    0.37E-03    0.15E-03    0.27E-07
 Optimization of the real space projectors (new method)

 maximal supplied QI-value         = 24.76
 optimisation between [QCUT,QGAM] = [ 10.15, 20.30] = [ 28.85,115.39] Ry 
 Optimized for a Real-space Cutoff    1.38 Angstroem

   l    n(q)    QCUT    max X(q) W(low)/X(q) W(high)/X(q)  e(spline) 
   0      8    10.150    20.381    0.22E-03    0.32E-03    0.29E-06
   0      8    10.150    15.268    0.23E-03    0.35E-03    0.30E-06
   1      8    10.150     5.964    0.46E-03    0.53E-03    0.21E-06
   1      8    10.150     5.382    0.38E-03    0.45E-03    0.19E-06
 Optimization of the real space projectors (new method)

 maximal supplied QI-value         = 19.84
 optimisation between [QCUT,QGAM] = [ 10.12, 20.44] = [ 28.68,116.96] Ry 
 Optimized for a Real-space Cutoff    1.23 Angstroem

   l    n(q)    QCUT    max X(q) W(low)/X(q) W(high)/X(q)  e(spline) 
   0      7    10.119   168.010    0.54E-04    0.25E-03    0.48E-07
   0      7    10.119   164.674    0.53E-04    0.25E-03    0.47E-07
   1      7    10.119    69.222    0.45E-03    0.63E-03    0.13E-06
   1      7    10.119    56.786    0.45E-03    0.62E-03    0.13E-06
  PAW_PBE Na 08Apr2002                  :
 energy of atom  1       EATOM=   -5.1581
 kinetic energy error for atom=    0.0001 (will be added to EATOM!!)
  PAW_PBE O 08Apr2002                   :
 energy of atom  2       EATOM= -432.3788
 kinetic energy error for atom=    0.1156 (will be added to EATOM!!)
  PAW_PBE Cl 06Sep2000                  :
 energy of atom  3       EATOM= -409.7259
 kinetic energy error for atom=    0.0089 (will be added to EATOM!!)
 
 
 POSCAR: Na  O Cl
  positions in cartesian coordinates
  No initial velocities read in
 exchange correlation table for  LEXCH =        8
   RHO(1)=    0.500       N(1)  =     2000
   RHO(2)=  100.500       N(2)  =     4000
 


--------------------------------------------------------------------------------------------------------


 ion  position               nearest neighbor table
   1  0.500  0.500  0.244-   6 2.23   4 2.23  25 2.23   3 3.15  33 3.15   2 3.15  33 3.15   2 3.15
                             3 3.15   9 3.15
   2  0.000  0.500  0.308-   4 2.23  25 2.23  34 2.23   5 2.23   4 2.23  25 2.23   9 3.15   7 3.15
                             1 3.15  33 3.15   3 3.15  33 3.15   9 3.15  35 3.15   7 3.15   1 3.15
   3  0.500  1.000  0.244-   6 2.23   4 2.23  25 2.23  33 3.15   1 3.15  33 3.15   2 3.15   7 3.15
                             1 3.15   2 3.15   5 3.86   5 3.86
   4  0.500  0.500  0.308-  25 0.00   2 2.23   9 2.23   1 2.23   7 2.23  26 2.23   3 2.23   2 2.23
                            34 3.15   6 3.15   5 3.15  34 3.15   5 3.15   6 3.15  12 3.15
   5  0.000  0.500  0.372-   7 2.23  26 2.23  35 2.23   2 2.23   7 2.23  26 2.23  33 2.23   8 2.23
                            12 3.15   4 3.15  34 3.15   6 3.15  34 3.15  12 3.15  36 3.15  10 3.15
   6  0.500  1.000  0.308-   1 2.23  33 2.23   9 2.23   3 2.23   7 2.23  26 2.23  33 2.23  34 3.15
                             4 3.15  34 3.15   5 3.15   4 3.15   5 3.15  10 3.15   2 3.86   2 3.86
   7  0.500  0.500  0.372-  26 0.00   5 2.23  12 2.23  25 2.23   4 2.23   6 2.23   5 2.23  27 2.23
                            10 2.23  35 3.15   9 3.15   2 3.15  35 3.15  33 3.15   8 3.15   3 3.15
   8  0.000  0.500  0.436-  10 2.23  27 2.23  36 2.23  11 2.23  10 2.23  27 2.23  34 2.23   5 2.23
                            15 3.15  37 3.15  13 3.15  35 3.15   9 3.15  35 3.15  15 3.15   7 3.15
   9  0.500  1.000  0.372-   4 2.23  25 2.23  34 2.23   6 2.23  10 2.23  27 2.23  34 2.23  12 2.23
                             7 3.15   2 3.15  35 3.15   8 3.15   2 3.15  35 3.15   7 3.15   8 3.15
  10  0.500  0.500  0.436-  27 0.00   8 2.23  15 2.23  13 2.23  28 2.23   9 2.23   8 2.23  26 2.23
                             7 2.23  36 3.15  12 3.15  11 3.15  36 3.15  34 3.15   5 3.15  11 3.15
  11  0.000  0.500  0.500-  13 2.23  28 2.23  37 2.23   8 2.23  14 2.23  28 2.23  13 2.23  35 2.23
                            18 3.15  16 3.15  10 3.15  36 3.15  12 3.15  36 3.15  18 3.15  38 3.15
  12  0.500  1.000  0.436-   7 2.23  26 2.23  35 2.23  15 2.23  13 2.23  28 2.23  35 2.23   9 2.23
                            36 3.15  10 3.15   5 3.15  36 3.15  11 3.15   5 3.15  16 3.15  10 3.15
  13  0.500  0.500  0.500-  28 0.00  11 2.23  18 2.23  10 2.23  27 2.23  16 2.23  29 2.23  12 2.23
                            11 2.23  37 3.15  15 3.15   8 3.15  14 3.15  37 3.15  35 3.15  14 3.15
  14  0.000  0.500  0.564-  16 2.23  29 2.23  38 2.23  11 2.23  16 2.23  29 2.23  36 2.23  17 2.23
                            21 3.15  13 3.15  37 3.15  15 3.15  37 3.15  21 3.15  39 3.15  19 3.15
  15  0.500  1.000  0.500-  10 2.23  27 2.23  36 2.23  12 2.23  18 2.23  16 2.23  29 2.23  36 2.23
                            37 3.15  13 3.15   8 3.15  37 3.15  14 3.15   8 3.15  13 3.15  14 3.15
  16  0.500  0.500  0.564-  29 0.00  14 2.23  21 2.23  28 2.23  13 2.23  15 2.23  14 2.23  30 2.23
                            19 2.23  38 3.15  18 3.15  11 3.15  38 3.15  36 3.15  17 3.15  12 3.15
  17  0.000  0.500  0.628-  19 2.23  30 2.23  39 2.23  20 2.23  19 2.23  30 2.23  37 2.23  14 2.23
                            24 3.15  40 3.15  22 3.15  38 3.15  18 3.15  38 3.15  24 3.15  16 3.15
  18  0.500  1.000  0.564-  13 2.23  28 2.23  37 2.23  15 2.23  19 2.23  30 2.23  37 2.23  21 2.23
                            16 3.15  11 3.15  38 3.15  17 3.15  11 3.15  38 3.15  16 3.15  17 3.15
  19  0.500  0.500  0.628-  30 0.00  17 2.23  24 2.23  22 2.23  31 2.23  18 2.23  17 2.23  29 2.23
                            16 2.23  39 3.15  21 3.15  20 3.15  39 3.15  37 3.15  14 3.15  20 3.15
  20  0.000  0.500  0.692-  22 2.23  31 2.23  40 2.23  17 2.23  23 2.23  31 2.23  22 2.23  38 2.23
                            19 3.15  39 3.15  21 3.15  39 3.15  19 3.15  21 3.15  37 3.15  24 3.86
  21  0.500  1.000  0.628-  16 2.23  29 2.23  38 2.23  24 2.23  22 2.23  31 2.23  38 2.23  18 2.23
                            39 3.15  19 3.15  14 3.15  39 3.15  20 3.15  14 3.15  19 3.15  20 3.15
  22  0.500  0.500  0.692-  31 0.00  20 2.23  30 2.23  19 2.23  32 2.23  21 2.23  20 2.23  40 3.15
                            24 3.15  17 3.15  23 3.15  40 3.15  38 3.15  23 3.15  17 3.15  24 3.15
  23  0.000  0.500  0.756-  32 2.23  20 2.23  32 2.23  39 2.23  22 3.15  40 3.15  24 3.15  40 3.15
                            22 3.15  24 3.15  38 3.15  21 3.86  21 3.86
  24  0.500  1.000  0.692-  19 2.23  30 2.23  39 2.23  21 2.23  32 2.23  39 2.23  40 3.15  22 3.15
                            17 3.15  40 3.15  23 3.15  17 3.15  22 3.15  23 3.15  38 3.15  16 3.15
  25  0.500  0.500  0.308-   4 0.00   2 2.23   9 2.23   7 2.23   1 2.23   3 2.23   2 2.23
  26  0.500  0.500  0.372-   7 0.00   5 2.23  12 2.23   4 2.23   6 2.23   5 2.23  10 2.23
  27  0.500  0.500  0.436-  10 0.00   8 2.23  15 2.23  13 2.23   9 2.23   8 2.23   7 2.23
  28  0.500  0.500  0.500-  13 0.00  11 2.23  18 2.23  16 2.23  10 2.23  12 2.23  11 2.23
  29  0.500  0.500  0.564-  16 0.00  14 2.23  21 2.23  13 2.23  15 2.23  14 2.23  19 2.23
  30  0.500  0.500  0.628-  19 0.00  17 2.23  24 2.23  22 2.23  18 2.23  17 2.23  16 2.23
  31  0.500  0.500  0.692-  22 0.00  20 2.23  19 2.23  21 2.23  20 2.23
  32  0.500  0.500  0.756-  23 2.23  22 2.23  24 2.23  23 2.23
  33  0.000  1.000  0.308-   6 2.23  34 2.23   6 2.23   5 2.23   3 3.15   1 3.15   3 3.15   2 3.15
                             1 3.15   2 3.15   7 3.15   9 3.15   7 3.15   9 3.15   8 3.15
  34  0.000  1.000  0.372-   2 2.23   9 2.23  33 2.23   9 2.23   8 2.23  35 2.23   6 3.15   4 3.15
                             6 3.15   5 3.15   4 3.15   5 3.15  10 3.15  10 3.15  12 3.15  11 3.15
  35  0.000  1.000  0.436-   5 2.23  12 2.23  36 2.23  12 2.23  11 2.23  34 2.23   7 3.15   9 3.15
                             8 3.15   7 3.15   8 3.15  13 3.15   2 3.15   9 3.15  15 3.15  13 3.15
  36  0.000  1.000  0.500-   8 2.23  15 2.23  35 2.23  37 2.23  15 2.23  14 2.23  12 3.15  10 3.15
                            12 3.15  11 3.15  10 3.15  11 3.15  16 3.15   5 3.15  18 3.15  16 3.15
  37  0.000  1.000  0.564-  11 2.23  18 2.23  36 2.23  18 2.23  17 2.23  38 2.23  15 3.15  13 3.15
                             8 3.15  15 3.15  14 3.15  13 3.15  14 3.15  19 3.15  19 3.15  21 3.15
  38  0.000  1.000  0.628-  14 2.23  21 2.23  39 2.23  21 2.23  20 2.23  37 2.23  16 3.15  18 3.15
                            17 3.15  16 3.15  17 3.15  22 3.15  11 3.15  18 3.15  24 3.15  22 3.15
  39  0.000  1.000  0.692-  17 2.23  24 2.23  38 2.23  40 2.23  24 2.23  23 2.23  21 3.15  19 3.15
                            21 3.15  20 3.15  19 3.15  20 3.15  14 3.15
  40  0.000  1.000  0.756-  20 2.23  39 2.23  24 3.15  22 3.15  17 3.15  24 3.15  23 3.15  22 3.15
                            23 3.15
 
 -----------------------------------------------------------------------------
|                                                                             |
|           W    W    AA    RRRRR   N    N  II  N    N   GGGG   !!!           |
|           W    W   A  A   R    R  NN   N  II  NN   N  G    G  !!!           |
|           W    W  A    A  R    R  N N  N  II  N N  N  G       !!!           |
|           W WW W  AAAAAA  RRRRR   N  N N  II  N  N N  G  GGG   !            |
|           WW  WW  A    A  R   R   N   NN  II  N   NN  G    G                |
|           W    W  A    A  R    R  N    N  II  N    N   GGGG   !!!           |
|                                                                             |
|     The distance between some ions is very small. Please check the          |
|     nearest-neighbor list in the OUTCAR file.                               |
|     I HOPE YOU KNOW WHAT YOU ARE DOING!                                     |
|                                                                             |
 -----------------------------------------------------------------------------

  LATTYP: Found a simple monoclinic cell.
 ALAT       =     6.3036850495
 B/A-ratio  =     0.7071067812
 C/A-ratio  =     3.9048376123
 COS(beta)  =    -0.0246748534
  
  Lattice vectors:
  
 A1 = (   4.4573784450,  -4.4573784450,   0.0000000000)
 A2 = (   3.1518425248,   3.1518425248,   0.0000000000)
 A3 = (  -0.4294741887,   0.4294741887,  24.6073719758)


Analysis of symmetry for initial positions (statically):
=====================================================================
 Subroutine PRICEL returns:
 Original cell was already a primitive cell.
 

 Routine SETGRP: Setting up the symmetry group for a 
 simple monoclinic supercell.


 Subroutine GETGRP returns: Found  2 space group operations
 (whereof  2 operations were pure point group operations)
 out of a pool of  4 trial point group operations.


The static configuration has the point symmetry C_1h.


Analysis of symmetry for dynamics (positions and initial velocities):
=====================================================================
 Subroutine PRICEL returns:
 Original cell was already a primitive cell.
 

 Routine SETGRP: Setting up the symmetry group for a 
 simple monoclinic supercell.


 Subroutine GETGRP returns: Found  2 space group operations
 (whereof  2 operations were pure point group operations)
 out of a pool of  4 trial point group operations.


The dynamic configuration has the point symmetry C_1h.


 Subroutine INISYM returns: Found  2 space group operations
 (whereof  2 operations are pure point group operations),
 and found     1 'primitive' translations


----------------------------------------------------------------------------------------

                                     Primitive cell                                     

  volume of cell :     691.4157

  direct lattice vectors                    reciprocal lattice vectors
    -3.151842525 -3.151842525  0.000000000    -0.158637367 -0.158637367  0.000000000
     4.457378445 -4.457378445  0.000000000     0.112173558 -0.112173558 -0.158637367
    17.400039591-17.400039591 24.607371976     0.000000000  0.000000000  0.040638228

  length of vectors
     4.457378445  6.303685050 34.800079183     0.224347116  0.224347116  0.040638228

  position of ions in fractional coordinates (direct lattice)
     0.500000174  0.499999826  0.243829370
     0.000000100  0.499999826  0.307872027
     0.500000174  0.999999900  0.243829370
     0.500000174  0.499999826  0.307872027
     0.000000100  0.499999826  0.371914685
     0.500000174  0.999999900  0.307872027
     0.500000174  0.499999826  0.371914685
     0.000000100  0.499999826  0.435957342
     0.500000174  0.999999900  0.371914685
     0.500000174  0.499999826  0.435957342
     0.000000100  0.499999826  0.500000000
     0.500000174  0.999999900  0.435957342
     0.500000174  0.499999826  0.500000000
     0.000000100  0.499999826  0.564042658
     0.500000174  0.999999900  0.500000000
     0.500000174  0.499999826  0.564042658
     0.000000100  0.499999826  0.628085315
     0.500000174  0.999999900  0.564042658
     0.500000174  0.499999826  0.628085315
     0.000000100  0.499999826  0.692127973
     0.500000174  0.999999900  0.628085315
     0.500000174  0.499999826  0.692127973
     0.000000100  0.499999826  0.756170630
     0.500000174  0.999999900  0.692127973
     0.500000174  0.499999826  0.307872027
     0.500000174  0.499999826  0.371914685
     0.500000174  0.499999826  0.435957342
     0.500000174  0.499999826  0.500000000
     0.500000174  0.499999826  0.564042658
     0.500000174  0.499999826  0.628085315
     0.500000174  0.499999826  0.692127973
     0.500000174  0.499999826  0.756170630
     0.000000100  0.999999900  0.307872008
     0.000000100  0.999999900  0.371914666
     0.000000100  0.999999900  0.435957323
     0.000000100  0.999999900  0.499999981
     0.000000100  0.999999900  0.564042638
     0.000000100  0.999999900  0.628085296
     0.000000100  0.999999900  0.692127954
     0.000000100  0.999999900  0.756170611

  ion indices of the primitive-cell ions
   primitive index   ion index
                 1           1
                 2           2
                 3           3
                 4           4
                 5           5
                 6           6
                 7           7
                 8           8
                 9           9
                10          10
                11          11
                12          12
                13          13
                14          14
                15          15
                16          16
                17          17
                18          18
                19          19
                20          20
                21          21
                22          22
                23          23
                24          24
                25          25
                26          26
                27          27
                28          28
                29          29
                30          30
                31          31
                32          32
                33          33
                34          34
                35          35
                36          36
                37          37
                38          38
                39          39
                40          40

----------------------------------------------------------------------------------------

 
 -----------------------------------------------------------------------------
|                                                                             |
|           W    W    AA    RRRRR   N    N  II  N    N   GGGG   !!!           |
|           W    W   A  A   R    R  NN   N  II  NN   N  G    G  !!!           |
|           W    W  A    A  R    R  N N  N  II  N N  N  G       !!!           |
|           W WW W  AAAAAA  RRRRR   N  N N  II  N  N N  G  GGG   !            |
|           WW  WW  A    A  R   R   N   NN  II  N   NN  G    G                |
|           W    W  A    A  R    R  N    N  II  N    N   GGGG   !!!           |
|                                                                             |
|     The requested file  could not be found or opened for reading            |
|     k-point information. Automatic k-point generation is used as a          |
|     fallback, which may lead to unwanted results.                           |
|                                                                             |
 -----------------------------------------------------------------------------

 

Automatic generation of k-mesh.
 Grid dimensions derived from KSPACING:
 generate k-points for:    3    3    1

 Generating k-lattice:

  Cartesian coordinates                     Fractional coordinates (reciprocal lattice)
    -0.052879122 -0.052879122  0.000000000     0.333333333  0.000000000  0.000000000
     0.037391186 -0.037391186 -0.052879122     0.000000000  0.333333333  0.000000000
     0.000000000  0.000000000  0.040638228     0.000000000  0.000000000  1.000000000

  Length of vectors
     0.074782372  0.074782372  0.040638228

  Shift w.r.t. Gamma in fractional coordinates (k-lattice)
     0.000000000  0.000000000  0.000000000

 
 Subroutine IBZKPT returns following result:
 ===========================================
 
 Found      4 irreducible k-points:
 
 Following reciprocal coordinates:
            Coordinates               Weight
  0.000000  0.000000  0.000000      1.000000
  0.333333  0.000000  0.000000      2.000000
  0.000000  0.333333  0.000000      2.000000
  0.333333  0.333333  0.000000      4.000000
 
 Following cartesian coordinates:
            Coordinates               Weight
  0.000000  0.000000  0.000000      1.000000
 -0.052879 -0.052879  0.000000      2.000000
  0.037391 -0.037391 -0.052879      2.000000
 -0.015488 -0.090270 -0.052879      4.000000
 


--------------------------------------------------------------------------------------------------------




 Dimension of arrays:
   k-points           NKPTS =      4   k-points in BZ     NKDIM =      4   number of bands    NBANDS=     88
   number of dos      NEDOS =    301   number of ions     NIONS =     40
   non local maximal  LDIM  =      4   non local SUM 2l+1 LMDIM =      8
   total plane-waves  NPLWV = 138240
   max r-space proj   IRMAX =   2253   max aug-charges    IRDMAX=   9933
   dimension x,y,z NGX =    24 NGY =   32 NGZ =  180
   dimension x,y,z NGXF=    48 NGYF=   64 NGZF=  360
   support grid    NGXF=    48 NGYF=   64 NGZF=  360
   ions per type =              24   8   8
   NGX,Y,Z   is equivalent  to a cutoff of   8.95,  8.44,  8.60 a.u.
   NGXF,Y,Z  is equivalent  to a cutoff of  17.90, 16.88, 17.20 a.u.

 SYSTEM =  unknown system                          
 POSCAR =  Na  O Cl                                

 Startparameter for this run:
   NWRITE =      1    write-flag & timer
   PREC   = normal    normal or accurate (medium, high low for compatibility)
   ISTART =      0    job   : 0-new  1-cont  2-samecut
   ICHARG =      2    charge: 1-file 2-atom 10-const
   ISPIN  =      1    spin polarized calculation?
   LNONCOLLINEAR =      F non collinear calculations
   LSORBIT =      F    spin-orbit coupling
   INIWAV =      1    electr: 0-lowe 1-rand  2-diag
   LASPH  =      T    aspherical Exc in radial PAW
 Electronic Relaxation 1
   ENCUT  =  400.0 eV  29.40 Ry    5.42 a.u.   7.27 10.28 56.75*2*pi/ulx,y,z
   ENINI  =  400.0     initial cutoff
   ENAUG  =  605.4 eV  augmentation charge cutoff
   NELM   =    150;   NELMIN=  2; NELMDL= -5     # of ELM steps 
   EDIFF  = 0.1E-07   stopping-criterion for ELM
   LREAL  =      T    real-space projection
   NLSPLINE    = F    spline interpolate recip. space projectors
   LCOMPAT=      F    compatible to vasp.4.4
   GGA_COMPAT  = T    GGA compatible to vasp.4.4-vasp.4.6
   LMAXPAW     = -100 max onsite density
   LMAXMIX     =    6 max onsite mixed and CHGCAR
   VOSKOWN=      0    Vosko Wilk Nusair interpolation
   ROPT   =   -0.00050  -0.00050  -0.00050
 Ionic relaxation
   EDIFFG = -.1E-01   stopping-criterion for IOM
   NSW    =      0    number of steps for IOM
   NBLOCK =      1;   KBLOCK =      1    inner block; outer block 
   IBRION =     -1    ionic relax: 0-MD 1-quasi-New 2-CG
   NFREE  =      0    steps in history (QN), initial steepest desc. (CG)
   ISIF   =      3    stress and relaxation
   IWAVPR =     10    prediction:  0-non 1-charg 2-wave 3-comb
   ISYM   =      2    0-nonsym 1-usesym 2-fastsym
   LCORR  =      T    Harris-Foulkes like correction to forces

   POTIM  = 0.5000    time-step for ionic-motion
   TEIN   =    0.0    initial temperature
   TEBEG  =    0.0;   TEEND  =   0.0 temperature during run
   SMASS  =  -3.00    Nose mass-parameter (am)
   estimated Nose-frequenzy (Omega)   =  0.10E-29 period in steps = 0.13E+47 mass=  -0.454E-27a.u.
   SCALEE = 1.0000    scale energy and forces
   NPACO  =    256;   APACO  = 16.0  distance and # of slots for P.C.
   PSTRESS=    0.0 pullay stress

  Mass of Ions in am
   POMASS =  22.99 16.00 35.45
  Ionic Valenz
   ZVAL   =   1.00  6.00  7.00
  Atomic Wigner-Seitz radii
   RWIGS  =  -1.00 -1.00 -1.00
  virtual crystal weights 
   VCA    =   1.00  1.00  1.00
   NELECT =     128.0000    total number of electrons
   NUPDOWN=      -1.0000    fix difference up-down

 DOS related values:
   EMIN   =  10.00;   EMAX   =-10.00  energy-range for DOS
   EFERMI =   0.00
   ISMEAR =     0;   SIGMA  =   0.10  broadening in eV -4-tet -1-fermi 0-gaus

 Electronic relaxation 2 (details)
   IALGO  =     68    algorithm
   LDIAG  =      T    sub-space diagonalisation (order eigenvalues)
   LSUBROT=      F    optimize rotation matrix (better conditioning)
   TURBO    =      0    0=normal 1=particle mesh
   IRESTART =      0    0=no restart 2=restart with 2 vectors
   NREBOOT  =      0    no. of reboots
   NMIN     =      0    reboot dimension
   EREF     =   0.00    reference energy to select bands
   IMIX   =      4    mixing-type and parameters
     AMIX     =   0.40;   BMIX     =  1.00
     AMIX_MAG =   1.60;   BMIX_MAG =  1.00
     AMIN     =   0.10
     WC   =   100.;   INIMIX=   1;  MIXPRE=   1;  MAXMIX= -45

 Intra band minimization:
   WEIMIN = 0.0000     energy-eigenvalue tresh-hold
   EBREAK =  0.28E-10  absolut break condition
   DEPER  =   0.30     relativ break condition  

   TIME   =   0.40     timestep for ELM

  volume/ion in A,a.u.               =      17.29       116.65
  Fermi-wavevector in a.u.,A,eV,Ry     =   0.933036  1.763182 11.844636  0.870556
  Thomas-Fermi vector in A             =   2.059696
 
 Write flags
   LWAVE        =      F    write WAVECAR
   LDOWNSAMPLE  =      F    k-point downsampling of WAVECAR
   LCHARG       =      F    write CHGCAR
   LVTOT        =      F    write LOCPOT, total local potential
   LVHAR        =      F    write LOCPOT, Hartree potential only
   LELF         =      F    write electronic localiz. function (ELF)
   LORBIT       =      0    0 simple, 1 ext, 2 COOP (PROOUT), +10 PAW based schemes


 Dipole corrections
   LMONO  =      F    monopole corrections only (constant potential shift)
   LDIPOL =      T    correct potential (dipole corrections)
   IDIPOL =      3    1-x, 2-y, 3-z, 4-all directions 
   EPSILON=  1.0000000 bulk dielectric constant

 Exchange correlation treatment:
   GGA     =    PE    GGA type
   LEXCH   =     8    internal setting for exchange type
   VOSKOWN=      0    Vosko Wilk Nusair interpolation
   LHFCALC =     F    Hartree Fock is set to
   LHFONE  =     F    Hartree Fock one center treatment
   AEXX    =    0.0000 exact exchange contribution

 Linear response parameters
   LEPSILON=     F    determine dielectric tensor
   LRPA    =     F    only Hartree local field effects (RPA)
   LNABLA  =     F    use nabla operator in PAW spheres
   LVEL    =     F    velocity operator in full k-point grid
   LINTERFAST=   F  fast interpolation
   KINTER  =     0    interpolate to denser k-point grid
   CSHIFT  =0.1000    complex shift for real part using Kramers Kronig
   OMEGAMAX=  -1.0    maximum frequency
   DEG_THRESHOLD= 0.2000000E-02 threshold for treating states as degnerate
   RTIME   =   -0.100 relaxation time in fs
  (WPLASMAI=    0.000 imaginary part of plasma frequency in eV, 0.658/RTIME)
   DFIELD  = 0.0000000 0.0000000 0.0000000 field for delta impulse in time
 
 Orbital magnetization related:
   ORBITALMAG=     F  switch on orbital magnetization
   LCHIMAG   =     F  perturbation theory with respect to B field
   DQ        =  0.001000  dq finite difference perturbation B field
   LLRAUG    =     F  two centre corrections for induced B field



--------------------------------------------------------------------------------------------------------


 Static calculation
 charge density and potential will be updated during run
 non-spin polarized calculation
 RMM-DIIS sequential band-by-band and
  variant of blocked Davidson during initial phase
 perform sub-space diagonalisation
    before iterative eigenvector-optimisation
 modified Broyden-mixing scheme, WC =      100.0
 initial mixing is a Kerker type mixing with AMIX =  0.4000 and BMIX =      1.0000
 Hartree-type preconditioning will be used
 using additional bands           24
 real space projection scheme for non local part
 use partial core corrections
 calculate Harris-corrections to forces 
   (improved forces if not selfconsistent)
 use gradient corrections 
 use of overlap-Matrix (Vanderbilt PP)
 Gauss-broadening in eV      SIGMA  =   0.10


--------------------------------------------------------------------------------------------------------


  energy-cutoff  :      400.00
  volume of cell :      691.42
      direct lattice vectors                 reciprocal lattice vectors
    -3.151842525 -3.151842525  0.000000000    -0.158637367 -0.158637367  0.000000000
     4.457378445 -4.457378445  0.000000000     0.112173558 -0.112173558 -0.158637367
    17.400039591-17.400039591 24.607371976     0.000000000  0.000000000  0.040638228

  length of vectors
     4.457378445  6.303685050 34.800079183     0.224347116  0.224347116  0.040638228


 
 k-points in units of 2pi/SCALE and weight: read from INCAR                         
   0.00000000  0.00000000  0.00000000       0.111
  -0.05287912 -0.05287912  0.00000000       0.222
   0.03739119 -0.03739119 -0.05287912       0.222
  -0.01548794 -0.09027031 -0.05287912       0.444
 
 k-points in reciprocal lattice and weights: read from INCAR                         
   0.00000000  0.00000000  0.00000000       0.111
   0.33333333  0.00000000  0.00000000       0.222
   0.00000000  0.33333333  0.00000000       0.222
   0.33333333  0.33333333  0.00000000       0.444
 
 position of ions in fractional coordinates (direct lattice) 
   0.50000017  0.49999983  0.24382937
   0.00000010  0.49999983  0.30787203
   0.50000017  0.99999990  0.24382937
   0.50000017  0.49999983  0.30787203
   0.00000010  0.49999983  0.37191468
   0.50000017  0.99999990  0.30787203
   0.50000017  0.49999983  0.37191468
   0.00000010  0.49999983  0.43595734
   0.50000017  0.99999990  0.37191468
   0.50000017  0.49999983  0.43595734
   0.00000010  0.49999983  0.50000000
   0.50000017  0.99999990  0.43595734
   0.50000017  0.49999983  0.50000000
   0.00000010  0.49999983  0.56404266
   0.50000017  0.99999990  0.50000000
   0.50000017  0.49999983  0.56404266
   0.00000010  0.49999983  0.62808532
   0.50000017  0.99999990  0.56404266
   0.50000017  0.49999983  0.62808532
   0.00000010  0.49999983  0.69212797
   0.50000017  0.99999990  0.62808532
   0.50000017  0.49999983  0.69212797
   0.00000010  0.49999983  0.75617063
   0.50000017  0.99999990  0.69212797
   0.50000017  0.49999983  0.30787203
   0.50000017  0.49999983  0.37191468
   0.50000017  0.49999983  0.43595734
   0.50000017  0.49999983  0.50000000
   0.50000017  0.49999983  0.56404266
   0.50000017  0.49999983  0.62808532
   0.50000017  0.49999983  0.69212797
   0.50000017  0.49999983  0.75617063
   0.00000010  0.99999990  0.30787201
   0.00000010  0.99999990  0.37191467
   0.00000010  0.99999990  0.43595732
   0.00000010  0.99999990  0.49999998
   0.00000010  0.99999990  0.56404264
   0.00000010  0.99999990  0.62808530
   0.00000010  0.99999990  0.69212795
   0.00000010  0.99999990  0.75617061
 
 position of ions in cartesian coordinates  (Angst):
   4.89540732 -8.04725094  6.00000000
   7.58567359 -7.58567422  7.57592150
   7.12409687-10.27594050  6.00000000
   6.00975210 -9.16159572  7.57592150
   8.70001837 -8.70001900  9.15184299
   8.23844165-11.39028528  7.57592150
   7.12409687-10.27594050  9.15184299
   9.81436315 -9.81436378 10.72776449
   9.35278643-12.50463005  9.15184299
   8.23844165-11.39028528 10.72776449
  10.92870793-10.92870856 12.30368599
  10.46713121-13.61897483 10.72776449
   9.35278643-12.50463005 12.30368599
  12.04305270-12.04305333 13.87960748
  11.58147598-14.73331961 12.30368599
  10.46713121-13.61897483 13.87960748
  13.15739748-13.15739811 15.45552898
  12.69582076-15.84766438 13.87960748
  11.58147598-14.73331961 15.45552898
  14.27174226-14.27174289 17.03145048
  13.81016554-16.96200916 15.45552898
  12.69582076-15.84766438 17.03145048
  15.38608703-15.38608766 18.60737198
  14.92451031-18.07635394 17.03145048
   6.00975210 -9.16159572  7.57592150
   7.12409687-10.27594050  9.15184299
   8.23844165-11.39028528 10.72776449
   9.35278643-12.50463005 12.30368599
  10.46713121-13.61897483 13.87960748
  11.58147598-14.73331961 15.45552898
  12.69582076-15.84766438 17.03145048
  13.81016554-16.96200916 18.60737198
   9.81436282 -9.81436345  7.57592103
  10.92870759-10.92870822  9.15184252
  12.04305237-12.04305300 10.72776402
  13.15739715-13.15739778 12.30368552
  14.27174193-14.27174256 13.87960702
  15.38608670-15.38608733 15.45552851
  16.50043148-16.50043211 17.03145001
  17.61477626-17.61477689 18.60737151
 


--------------------------------------------------------------------------------------------------------


 k-point   1 :   0.0000 0.0000 0.0000  plane waves:   12581
 k-point   2 :   0.3333 0.0000 0.0000  plane waves:   12548
 k-point   3 :   0.0000 0.3333 0.0000  plane waves:   12583
 k-point   4 :   0.3333 0.3333 0.0000  plane waves:   12559

 maximum and minimum number of plane-waves per node :       813      764

 maximum number of plane-waves:     12583
 maximum index in each direction: 
   IXMAX=    7   IYMAX=   10   IZMAX=   56
   IXMIN=   -7   IYMIN=  -10   IZMIN=  -56


 real space projection operators:
  total allocation   :       3113.31 KBytes
  max/ min on nodes  :        275.64        138.94


 parallel 3D FFT for wavefunctions:
    minimum data exchange during FFTs selected (reduces bandwidth)
 parallel 3D FFT for charge:
    minimum data exchange during FFTs selected (reduces bandwidth)


 total amount of memory used by VASP MPI-rank0    35436. kBytes
=======================================================================

   base      :      30000. kBytes
   nonlr-proj:       1861. kBytes
   fftplans  :       1050. kBytes
   grid      :       1942. kBytes
   one-center:          9. kBytes
   wavefun   :        574. kBytes
 
     INWAV:  cpu time    0.0000: real time    0.0000
 Broyden mixing: mesh for mixing (old mesh)
   NGX = 15   NGY = 21   NGZ =113
  (NGX  = 48   NGY  = 64   NGZ  =360)
  gives a total of  35595 points

 initial charge density was supplied:
 charge density of overlapping atoms calculated
 number of electron     128.0000000 magnetization 
 keeping initial charge density in first step


--------------------------------------------------------------------------------------------------------


 Maximum index for non-local projection operator          175
 Maximum index for augmentation-charges          591 (set IRDMAX)


--------------------------------------------------------------------------------------------------------


 First call to EWALD:  gamma=   0.200
 Maximum number of real-space cells 5x 5x 1
 Maximum number of reciprocal cells 2x 2x 9

    FEWALD:  cpu time    0.0014: real time    0.0014


--------------------------------------- Iteration      1(   1)  ---------------------------------------


    POTLOK:  cpu time    0.0167: real time    0.0193
    SETDIJ:  cpu time    0.0438: real time    0.0447
     EDDAV:  cpu time    0.3152: real time    0.3218
       DOS:  cpu time    0.0016: real time    0.0016
    --------------------------------------------
      LOOP:  cpu time    0.3774: real time    0.3874

 eigenvalue-minimisations  :   832
 total energy-change (2. order) : 0.2930924E+03  (-0.4924541E+04)
 number of electron     128.0000000 magnetization 
 augmentation part      128.0000000 magnetization 

 DIPCOR: dipole corrections for dipol
 direction  3 min pos     3,
 dipolmoment           0.002839     -0.002839      0.004015 electrons x Angstroem
 Tr[quadrupol]      -806.749166

 energy correction for charged system         0.000000 eV
 dipol+quadrupol energy correction            0.000002 eV
 added-field ion interaction          0.000000 eV  (added to PSCEN)


 Free energy of the ion-electron system (eV)
  ---------------------------------------------------
  alpha Z        PSCENC =        -2.39577611
  Ewald energy   TEWEN  =     19836.83904480
  -Hartree energ DENC   =    -26370.34596009
  -exchange      EXHF   =         0.00000000
  -V(xc)+E(xc)   XCENC  =      -551.24630052
  PAW double counting   =      6331.62777965    -5446.72317591
  entropy T*S    EENTRO =        -0.01821205
  eigenvalues    EBANDS =      -364.27944611
  atomic energy  EATOM  =      6859.63447978
  Solvation  Ediel_sol  =         0.00000000
  ---------------------------------------------------
  free energy    TOTEN  =       293.09243343 eV

  energy without entropy =      293.11064548  energy(sigma->0) =      293.10153946


--------------------------------------------------------------------------------------------------------




--------------------------------------- Iteration      1(   2)  ---------------------------------------


     EDDAV:  cpu time    0.3706: real time    0.4259
       DOS:  cpu time    0.0005: real time    0.0005
    --------------------------------------------
      LOOP:  cpu time    0.3712: real time    0.4264

 eigenvalue-minimisations  :   832
 total energy-change (2. order) :-0.1081179E+04  (-0.1034345E+04)
 number of electron     128.0000000 magnetization 
 augmentation part      128.0000000 magnetization 

 DIPCOR: dipole corrections for dipol
 direction  3 min pos     3,
 dipolmoment           0.002839     -0.002839      0.004015 electrons x Angstroem
 Tr[quadrupol]      -806.749166

 energy correction for charged system         0.000000 eV
 dipol+quadrupol energy correction            0.000002 eV
 added-field ion interaction          0.000000 eV  (added to PSCEN)


 Free energy of the ion-electron system (eV)
  ---------------------------------------------------
  alpha Z        PSCENC =        -2.39577611
  Ewald energy   TEWEN  =     19836.83904480
  -Hartree energ DENC   =    -26370.34596009
  -exchange      EXHF   =         0.00000000
  -V(xc)+E(xc)   XCENC  =      -551.24630052
  PAW double counting   =      6331.62777965    -5446.72317591
  entropy T*S    EENTRO =        -0.05446038
  eigenvalues    EBANDS =     -1445.42232093
  atomic energy  EATOM  =      6859.63447978
  Solvation  Ediel_sol  =         0.00000000
  ---------------------------------------------------
  free energy    TOTEN  =      -788.08668971 eV

  energy without entropy =     -788.03222933  energy(sigma->0) =     -788.05945952


--------------------------------------------------------------------------------------------------------




--------------------------------------- Iteration      1(   3)  ---------------------------------------


     EDDAV:  cpu time    0.4006: real time    0.4017
       DOS:  cpu time    0.0034: real time    0.0041
    --------------------------------------------
      LOOP:  cpu time    0.4040: real time    0.4058

 eigenvalue-minimisations  :  1208
 total energy-change (2. order) :-0.3045778E+03  (-0.2926353E+03)
 number of electron     128.0000000 magnetization 
 augmentation part      128.0000000 magnetization 

 DIPCOR: dipole corrections for dipol
 direction  3 min pos     3,
 dipolmoment           0.002839     -0.002839      0.004015 electrons x Angstroem
 Tr[quadrupol]      -806.749166

 energy correction for charged system         0.000000 eV
 dipol+quadrupol energy correction            0.000002 eV
 added-field ion interaction          0.000000 eV  (added to PSCEN)


 Free energy of the ion-electron system (eV)
  ---------------------------------------------------
  alpha Z        PSCENC =        -2.39577611
  Ewald energy   TEWEN  =     19836.83904480
  -Hartree energ DENC   =    -26370.34596009
  -exchange      EXHF   =         0.00000000
  -V(xc)+E(xc)   XCENC  =      -551.24630052
  PAW double counting   =      6331.62777965    -5446.72317591
  entropy T*S    EENTRO =        -0.00876173
  eigenvalues    EBANDS =     -1750.04580618
  atomic energy  EATOM  =      6859.63447978
  Solvation  Ediel_sol  =         0.00000000
  ---------------------------------------------------
  free energy    TOTEN  =     -1092.66447632 eV

  energy without entropy =    -1092.65571458  energy(sigma->0) =    -1092.66009545


--------------------------------------------------------------------------------------------------------




--------------------------------------- Iteration      1(   4)  ---------------------------------------


     EDDAV:  cpu time    0.3294: real time    0.3444
       DOS:  cpu time    0.0006: real time    0.0006
    --------------------------------------------
      LOOP:  cpu time    0.3300: real time    0.3450

 eigenvalue-minimisations  :  1000
 total energy-change (2. order) :-0.2305585E+02  (-0.2242822E+02)
 number of electron     128.0000000 magnetization 
 augmentation part      128.0000000 magnetization 

 DIPCOR: dipole corrections for dipol
 direction  3 min pos     3,
 dipolmoment           0.002839     -0.002839      0.004015 electrons x Angstroem
 Tr[quadrupol]      -806.749166

 energy correction for charged system         0.000000 eV
 dipol+quadrupol energy correction            0.000002 eV
 added-field ion interaction          0.000000 eV  (added to PSCEN)


 Free energy of the ion-electron system (eV)
  ---------------------------------------------------
  alpha Z        PSCENC =        -2.39577611
  Ewald energy   TEWEN  =     19836.83904480
  -Hartree energ DENC   =    -26370.34596009
  -exchange      EXHF   =         0.00000000
  -V(xc)+E(xc)   XCENC  =      -551.24630052
  PAW double counting   =      6331.62777965    -5446.72317591
  entropy T*S    EENTRO =        -0.02134048
  eigenvalues    EBANDS =     -1773.08907359
  atomic energy  EATOM  =      6859.63447978
  Solvation  Ediel_sol  =         0.00000000
  ---------------------------------------------------
  free energy    TOTEN  =     -1115.72032248 eV

  energy without entropy =    -1115.69898199  energy(sigma->0) =    -1115.70965224


--------------------------------------------------------------------------------------------------------




--------------------------------------- Iteration      1(   5)  ---------------------------------------


     EDDAV:  cpu time    0.3102: real time    0.3107
       DOS:  cpu time    0.0005: real time    0.0005
    CHARGE:  cpu time    0.0220: real time    0.0231
    MIXING:  cpu time    0.0043: real time    0.0057
    --------------------------------------------
      LOOP:  cpu time    0.3370: real time    0.3399

 eigenvalue-minimisations  :   912
 total energy-change (2. order) :-0.3921934E+00  (-0.3893575E+00)
 number of electron     127.9999946 magnetization 
 augmentation part       13.2760867 magnetization 

 DIPCOR: dipole corrections for dipol
 direction  3 min pos     3,
 dipolmoment           0.002839     -0.002839      0.004015 electrons x Angstroem
 Tr[quadrupol]      -806.749166

 energy correction for charged system         0.000000 eV
 dipol+quadrupol energy correction            0.000002 eV
 added-field ion interaction          0.000000 eV  (added to PSCEN)


 Broyden mixing:
  rms(total) = 0.70924E+02    rms(broyden)= 0.70924E+02
  rms(prec ) = 0.71012E+02
  weight for this iteration     100.00

 Free energy of the ion-electron system (eV)
  ---------------------------------------------------
  alpha Z        PSCENC =        -2.39577611
  Ewald energy   TEWEN  =     19836.83904480
  -Hartree energ DENC   =    -26370.34596009
  -exchange      EXHF   =         0.00000000
  -V(xc)+E(xc)   XCENC  =      -551.24630052
  PAW double counting   =      6331.62777965    -5446.72317591
  entropy T*S    EENTRO =        -0.02334672
  eigenvalues    EBANDS =     -1773.47926073
  atomic energy  EATOM  =      6859.63447978
  Solvation  Ediel_sol  =         0.00000000
  ---------------------------------------------------
  free energy    TOTEN  =     -1116.11251586 eV

  energy without entropy =    -1116.08916914  energy(sigma->0) =    -1116.10084250


--------------------------------------------------------------------------------------------------------




--------------------------------------- Iteration      1(   6)  ---------------------------------------


    POTLOK:  cpu time    0.0152: real time    0.0153
    SETDIJ:  cpu time    0.0467: real time    0.0467
    EDDIAG:  cpu time    0.0651: real time    0.0675
  RMM-DIIS:  cpu time    0.0756: real time    0.0766
    ORTHCH:  cpu time    0.0125: real time    0.0145
       DOS:  cpu time    0.0006: real time    0.0006
    CHARGE:  cpu time    0.0172: real time    0.0172
    MIXING:  cpu time    0.0021: real time    0.0027
    --------------------------------------------
      LOOP:  cpu time    0.2350: real time    0.2410

 eigenvalue-minimisations  :   768
 total energy-change (2. order) : 0.5895714E+03  (-0.3763860E+02)
 number of electron     127.9999915 magnetization 
 augmentation part       -0.5085271 magnetization 

 DIPCOR: dipole corrections for dipol
 direction  3 min pos     3,
 dipolmoment           1.003631     -1.003631      1.419349 electrons x Angstroem
 Tr[quadrupol]      -827.246102

 energy correction for charged system         0.000000 eV
 dipol+quadrupol energy correction            0.263618 eV
 added-field ion interaction          0.000000 eV  (added to PSCEN)


 Broyden mixing:
  rms(total) = 0.29691E+02    rms(broyden)= 0.29690E+02
  rms(prec ) = 0.30202E+02
  weight for this iteration     100.00

 eigenvalues of (default mixing * dielectric matrix)
  average eigenvalue GAMMA=   0.7126
  0.7126

 Free energy of the ion-electron system (eV)
  ---------------------------------------------------
  alpha Z        PSCENC =        -2.13216044
  Ewald energy   TEWEN  =     19836.83904480
  -Hartree energ DENC   =    -27245.63688320
  -exchange      EXHF   =         0.00000000
  -V(xc)+E(xc)   XCENC  =      -514.85543516
  PAW double counting   =   3637353.38478707 -3636627.12949314
  entropy T*S    EENTRO =        -0.14140444
  eigenvalues    EBANDS =      -186.50407345
  atomic energy  EATOM  =      6859.63447978
  Solvation  Ediel_sol  =         0.00000000
  ---------------------------------------------------
  free energy    TOTEN  =      -526.54113819 eV

  energy without entropy =     -526.39973375  energy(sigma->0) =     -526.47043597


--------------------------------------------------------------------------------------------------------




--------------------------------------- Iteration      1(   7)  ---------------------------------------


    POTLOK:  cpu time    0.0137: real time    0.0138
    SETDIJ:  cpu time    0.0435: real time    0.0435
    EDDIAG:  cpu time    0.0637: real time    0.0644
  RMM-DIIS:  cpu time    0.0977: real time    0.0977
    ORTHCH:  cpu time    0.0116: real time    0.0116
       DOS:  cpu time    0.0005: real time    0.0005
    CHARGE:  cpu time    0.0172: real time    0.0172
    MIXING:  cpu time    0.0006: real time    0.0006
    --------------------------------------------
      LOOP:  cpu time    0.2485: real time    0.2494

 eigenvalue-minimisations  :  1010
 total energy-change (2. order) :-0.2285864E+03  (-0.3381235E+02)
 number of electron     127.9999914 magnetization 
 augmentation part        8.8629876 magnetization 

 DIPCOR: dipole corrections for dipol
 direction  3 min pos     3,
 dipolmoment          -1.313556      1.313556     -1.857649 electrons x Angstroem
 Tr[quadrupol]      -804.513274

 energy correction for charged system         0.000000 eV
 dipol+quadrupol energy correction            0.451568 eV
 added-field ion interaction          0.000000 eV  (added to PSCEN)


 Broyden mixing:
  rms(total) = 0.49960E+02    rms(broyden)= 0.49958E+02
  rms(prec ) = 0.50421E+02
  weight for this iteration     100.00

 eigenvalues of (default mixing * dielectric matrix)
  average eigenvalue GAMMA=   0.4012
  0.7403  0.0621

 Free energy of the ion-electron system (eV)
  ---------------------------------------------------
  alpha Z        PSCENC =        -1.94420991
  Ewald energy   TEWEN  =     19836.83904480
  -Hartree energ DENC   =    -26477.45479289
  -exchange      EXHF   =         0.00000000
  -V(xc)+E(xc)   XCENC  =      -536.79169709
  PAW double counting   =   1979235.79842852 -1978478.79466315
  entropy T*S    EENTRO =        -0.10594286
  eigenvalues    EBANDS =     -1192.30822839
  atomic energy  EATOM  =      6859.63447978
  Solvation  Ediel_sol  =         0.00000000
  ---------------------------------------------------
  free energy    TOTEN  =      -755.12758122 eV

  energy without entropy =     -755.02163835  energy(sigma->0) =     -755.07460979


--------------------------------------------------------------------------------------------------------




--------------------------------------- Iteration      1(   8)  ---------------------------------------


    POTLOK:  cpu time    0.0132: real time    0.0133
    SETDIJ:  cpu time    0.0441: real time    0.0441
    EDDIAG:  cpu time    0.0634: real time    0.0642
  RMM-DIIS:  cpu time    0.1505: real time    0.1514
    ORTHCH:  cpu time    0.1109: real time    0.1682
       DOS:  cpu time    0.0028: real time    0.0030
    CHARGE:  cpu time    0.0290: real time    0.0824
    MIXING:  cpu time    0.0007: real time    0.0007
    --------------------------------------------
      LOOP:  cpu time    0.4146: real time    0.5272

 eigenvalue-minimisations  :  1047
 total energy-change (2. order) : 0.7995085E+02  (-0.3989059E+01)
 number of electron     127.9999907 magnetization 
 augmentation part        9.3583543 magnetization 

 DIPCOR: dipole corrections for dipol
 direction  3 min pos     3,
 dipolmoment          -0.855813      0.855813     -1.210302 electrons x Angstroem
 Tr[quadrupol]      -808.934322

 energy correction for charged system         0.000000 eV
 dipol+quadrupol energy correction            0.191683 eV
 added-field ion interaction          0.000000 eV  (added to PSCEN)


 Broyden mixing:
  rms(total) = 0.48022E+02    rms(broyden)= 0.48022E+02
  rms(prec ) = 0.48441E+02
  weight for this iteration     100.00

 eigenvalues of (default mixing * dielectric matrix)
  average eigenvalue GAMMA=   0.4590
  0.7636  0.3067  0.3067

 Free energy of the ion-electron system (eV)
  ---------------------------------------------------
  alpha Z        PSCENC =        -2.20409515
  Ewald energy   TEWEN  =     19836.83904480
  -Hartree energ DENC   =    -26517.90060822
  -exchange      EXHF   =         0.00000000
  -V(xc)+E(xc)   XCENC  =      -536.25911963
  PAW double counting   =   2155485.75973397 -2154735.51062286
  entropy T*S    EENTRO =        -0.07205832
  eigenvalues    EBANDS =     -1065.46349008
  atomic energy  EATOM  =      6859.63447978
  Solvation  Ediel_sol  =         0.00000000
  ---------------------------------------------------
  free energy    TOTEN  =      -675.17673572 eV

  energy without entropy =     -675.10467740  energy(sigma->0) =     -675.14070656


--------------------------------------------------------------------------------------------------------




--------------------------------------- Iteration      1(   9)  ---------------------------------------


    POTLOK:  cpu time    0.0140: real time    0.0141
    SETDIJ:  cpu time    0.0433: real time    0.0433
    EDDIAG:  cpu time    0.0625: real time    0.0635
  RMM-DIIS:  cpu time    0.0909: real time    0.0914
    ORTHCH:  cpu time    0.0125: real time    0.0161
       DOS:  cpu time    0.0257: real time    0.0267
    CHARGE:  cpu time    0.0647: real time    0.0784
    MIXING:  cpu time    0.0031: real time    0.0054
    --------------------------------------------
      LOOP:  cpu time    0.3166: real time    0.3389

 eigenvalue-minimisations  :   908
 total energy-change (2. order) : 0.1071139E+03  (-0.1343612E+01)
 number of electron     127.9999920 magnetization 
 augmentation part        9.0953850 magnetization 

 DIPCOR: dipole corrections for dipol
 direction  3 min pos     3,
 dipolmoment          -0.224963      0.224963     -0.318145 electrons x Angstroem
 Tr[quadrupol]      -807.590726

 energy correction for charged system         0.000000 eV
 dipol+quadrupol energy correction            0.013245 eV
 added-field ion interaction          0.000000 eV  (added to PSCEN)


 Broyden mixing:
  rms(total) = 0.44929E+02    rms(broyden)= 0.44929E+02
  rms(prec ) = 0.45408E+02
  weight for this iteration     100.00

 eigenvalues of (default mixing * dielectric matrix)
  average eigenvalue GAMMA=   0.6741
  0.8969  0.8969  0.6399  0.2624

 Free energy of the ion-electron system (eV)
  ---------------------------------------------------
  alpha Z        PSCENC =        -2.38253336
  Ewald energy   TEWEN  =     19836.83904480
  -Hartree energ DENC   =    -26567.47200347
  -exchange      EXHF   =         0.00000000
  -V(xc)+E(xc)   XCENC  =      -532.81443958
  PAW double counting   =   2586508.47233410 -2585771.65954978
  entropy T*S    EENTRO =        -0.05550994
  eigenvalues    EBANDS =      -898.62465340
  atomic energy  EATOM  =      6859.63447978
  Solvation  Ediel_sol  =         0.00000000
  ---------------------------------------------------
  free energy    TOTEN  =      -568.06283086 eV

  energy without entropy =     -568.00732092  energy(sigma->0) =     -568.03507589


--------------------------------------------------------------------------------------------------------




--------------------------------------- Iteration      1(  10)  ---------------------------------------


    POTLOK:  cpu time    0.0288: real time    0.0444
    SETDIJ:  cpu time    0.0655: real time    0.0655
    EDDIAG:  cpu time    0.0778: real time    0.0799
  RMM-DIIS:  cpu time    0.2709: real time    0.2776
    ORTHCH:  cpu time    0.0248: real time    0.0279
       DOS:  cpu time    0.0021: real time    0.0027
    CHARGE:  cpu time    0.0178: real time    0.0223
    MIXING:  cpu time    0.0007: real time    0.0007
    --------------------------------------------
      LOOP:  cpu time    0.4883: real time    0.5209

 eigenvalue-minimisations  :  1295
 total energy-change (2. order) : 0.1285472E+03  (-0.2758188E+02)
 number of electron     127.9999890 magnetization 
 augmentation part        6.6655986 magnetization 

 DIPCOR: dipole corrections for dipol
 direction  3 min pos     3,
 dipolmoment          -0.036856      0.036856     -0.052122 electrons x Angstroem
 Tr[quadrupol]      -848.658605

 energy correction for charged system         0.000000 eV
 dipol+quadrupol energy correction            0.000355 eV
 added-field ion interaction          0.000000 eV  (added to PSCEN)


 Broyden mixing:
  rms(total) = 0.35339E+02    rms(broyden)= 0.35336E+02
  rms(prec ) = 0.35752E+02
  weight for this iteration     100.00

 eigenvalues of (default mixing * dielectric matrix)
  average eigenvalue GAMMA=   0.5365
  1.0013  0.5709  0.5709  0.2697  0.2697

 Free energy of the ion-electron system (eV)
  ---------------------------------------------------
  alpha Z        PSCENC =        -2.39542272
  Ewald energy   TEWEN  =     19836.83904480
  -Hartree energ DENC   =    -27000.47468414
  -exchange      EXHF   =         0.00000000
  -V(xc)+E(xc)   XCENC  =      -524.19949079
  PAW double counting   =   4162164.98733864 -4161482.97789233
  entropy T*S    EENTRO =        -0.04320555
  eigenvalues    EBANDS =      -290.88577847
  atomic energy  EATOM  =      6859.63447978
  Solvation  Ediel_sol  =         0.00000000
  ---------------------------------------------------
  free energy    TOTEN  =      -439.51561079 eV

  energy without entropy =     -439.47240524  energy(sigma->0) =     -439.49400802


--------------------------------------------------------------------------------------------------------




--------------------------------------- Iteration      1(  11)  ---------------------------------------


    POTLOK:  cpu time    0.0132: real time    0.0132
    SETDIJ:  cpu time    0.0434: real time    0.0434
    EDDIAG:  cpu time    0.0634: real time    0.0643
  RMM-DIIS:  cpu time    0.1771: real time    0.1812
    ORTHCH:  cpu time    0.0109: real time    0.0109
       DOS:  cpu time    0.0005: real time    0.0005
    CHARGE:  cpu time    0.0176: real time    0.0176
    MIXING:  cpu time    0.0008: real time    0.0008
    --------------------------------------------
      LOOP:  cpu time    0.3269: real time    0.3320

 eigenvalue-minimisations  :  1156
 total energy-change (2. order) :-0.4094787E+02  (-0.7414130E+01)
 number of electron     127.9999911 magnetization 
 augmentation part        6.8657633 magnetization 

 DIPCOR: dipole corrections for dipol
 direction  3 min pos     3,
 dipolmoment           1.662959     -1.662959      2.351779 electrons x Angstroem
 Tr[quadrupol]      -831.394914

 energy correction for charged system         0.000000 eV
 dipol+quadrupol energy correction            0.723751 eV
 added-field ion interaction          0.000000 eV  (added to PSCEN)


 Broyden mixing:
  rms(total) = 0.35233E+02    rms(broyden)= 0.35228E+02
  rms(prec ) = 0.35937E+02
  weight for this iteration     100.00

 eigenvalues of (default mixing * dielectric matrix)
  average eigenvalue GAMMA=   0.5139
  1.3696  0.4357  0.4357  0.4099  0.3108  0.1218

 Free energy of the ion-electron system (eV)
  ---------------------------------------------------
  alpha Z        PSCENC =        -1.67202719
  Ewald energy   TEWEN  =     19836.83904480
  -Hartree energ DENC   =    -26920.35323472
  -exchange      EXHF   =         0.00000000
  -V(xc)+E(xc)   XCENC  =      -521.76567329
  PAW double counting   =   4484219.51318591 -4483562.90264584
  entropy T*S    EENTRO =        -0.07354864
  eigenvalues    EBANDS =      -389.68306273
  atomic energy  EATOM  =      6859.63447978
  Solvation  Ediel_sol  =         0.00000000
  ---------------------------------------------------
  free energy    TOTEN  =      -480.46348194 eV

  energy without entropy =     -480.38993329  energy(sigma->0) =     -480.42670761


--------------------------------------------------------------------------------------------------------




--------------------------------------- Iteration      1(  12)  ---------------------------------------


    POTLOK:  cpu time    0.0132: real time    0.0136
    SETDIJ:  cpu time    0.0431: real time    0.0432
    EDDIAG:  cpu time    0.0623: real time    0.0634
  RMM-DIIS:  cpu time    0.1041: real time    0.1041
    ORTHCH:  cpu time    0.0112: real time    0.0112
       DOS:  cpu time    0.0005: real time    0.0005
    CHARGE:  cpu time    0.0178: real time    0.0178
    MIXING:  cpu time    0.0007: real time    0.0007
    --------------------------------------------
      LOOP:  cpu time    0.2529: real time    0.2544

 eigenvalue-minimisations  :  1066
 total energy-change (2. order) : 0.1176931E+03  (-0.2953099E+01)
 number of electron     127.9999899 magnetization 
 augmentation part        6.8139480 magnetization 

 DIPCOR: dipole corrections for dipol
 direction  3 min pos     3,
 dipolmoment           1.205751     -1.205751      1.705189 electrons x Angstroem
 Tr[quadrupol]      -829.754606

 energy correction for charged system         0.000000 eV
 dipol+quadrupol energy correction            0.380488 eV
 added-field ion interaction          0.000000 eV  (added to PSCEN)


 Broyden mixing:
  rms(total) = 0.34020E+02    rms(broyden)= 0.34017E+02
  rms(prec ) = 0.34352E+02
  weight for this iteration     100.00

 eigenvalues of (default mixing * dielectric matrix)
  average eigenvalue GAMMA=   0.4732
  1.4050  0.4158  0.4158  0.3986  0.3986  0.1828  0.0958

 Free energy of the ion-electron system (eV)
  ---------------------------------------------------
  alpha Z        PSCENC =        -2.01528993
  Ewald energy   TEWEN  =     19836.83904480
  -Hartree energ DENC   =    -26872.50713886
  -exchange      EXHF   =         0.00000000
  -V(xc)+E(xc)   XCENC  =      -522.27438736
  PAW double counting   =   4522430.82231923 -4521788.45798868
  entropy T*S    EENTRO =        -0.07085610
  eigenvalues    EBANDS =      -304.74057566
  atomic energy  EATOM  =      6859.63447978
  Solvation  Ediel_sol  =         0.00000000
  ---------------------------------------------------
  free energy    TOTEN  =      -362.77039279 eV

  energy without entropy =     -362.69953669  energy(sigma->0) =     -362.73496474


--------------------------------------------------------------------------------------------------------




--------------------------------------- Iteration      1(  13)  ---------------------------------------


    POTLOK:  cpu time    0.0131: real time    0.0131
    SETDIJ:  cpu time    0.0442: real time    0.0442
    EDDIAG:  cpu time    0.0638: real time    0.0642
  RMM-DIIS:  cpu time    0.0991: real time    0.0991
    ORTHCH:  cpu time    0.0112: real time    0.0112
       DOS:  cpu time    0.0005: real time    0.0005
    CHARGE:  cpu time    0.0178: real time    0.0178
    MIXING:  cpu time    0.0007: real time    0.0007
    --------------------------------------------
      LOOP:  cpu time    0.2504: real time    0.2508

 eigenvalue-minimisations  :  1020
 total energy-change (2. order) : 0.3421639E+02  (-0.9468526E+00)
 number of electron     127.9999890 magnetization 
 augmentation part       11.6106801 magnetization 

 DIPCOR: dipole corrections for dipol
 direction  3 min pos     3,
 dipolmoment           0.873887     -0.873887      1.235863 electrons x Angstroem
 Tr[quadrupol]      -827.327118

 energy correction for charged system         0.000000 eV
 dipol+quadrupol energy correction            0.199865 eV
 added-field ion interaction          0.000000 eV  (added to PSCEN)


 Broyden mixing:
  rms(total) = 0.31323E+02    rms(broyden)= 0.31320E+02
  rms(prec ) = 0.31530E+02
  weight for this iteration     100.00

 eigenvalues of (default mixing * dielectric matrix)
  average eigenvalue GAMMA=   0.4452
  1.3525  0.4677  0.4677  0.4534  0.4534  0.2107  0.1059  0.0501

 Free energy of the ion-electron system (eV)
  ---------------------------------------------------
  alpha Z        PSCENC =        -2.19591315
  Ewald energy   TEWEN  =     19836.83904480
  -Hartree energ DENC   =    -26833.78371284
  -exchange      EXHF   =         0.00000000
  -V(xc)+E(xc)   XCENC  =      -522.78076141
  PAW double counting   =   4433316.21584520 -4432675.64696513
  entropy T*S    EENTRO =        -0.24920903
  eigenvalues    EBANDS =      -306.58680948
  atomic energy  EATOM  =      6859.63447978
  Solvation  Ediel_sol  =         0.00000000
  ---------------------------------------------------
  free energy    TOTEN  =      -328.55400128 eV

  energy without entropy =     -328.30479225  energy(sigma->0) =     -328.42939676


--------------------------------------------------------------------------------------------------------




--------------------------------------- Iteration      1(  14)  ---------------------------------------


    POTLOK:  cpu time    0.0134: real time    0.0138
    SETDIJ:  cpu time    0.0447: real time    0.0448
    EDDIAG:  cpu time    0.0703: real time    0.0707
  RMM-DIIS:  cpu time    0.0989: real time    0.0989
    ORTHCH:  cpu time    0.0118: real time    0.0118
       DOS:  cpu time    0.0005: real time    0.0005
    CHARGE:  cpu time    0.0175: real time    0.0175
    MIXING:  cpu time    0.0007: real time    0.0007
    --------------------------------------------
      LOOP:  cpu time    0.2578: real time    0.2587

 eigenvalue-minimisations  :  1017
 total energy-change (2. order) : 0.2607234E+02  (-0.7208029E+00)
 number of electron     127.9999878 magnetization 
 augmentation part       15.1881348 magnetization 

 DIPCOR: dipole corrections for dipol
 direction  3 min pos     3,
 dipolmoment           0.577873     -0.577873      0.817236 electrons x Angstroem
 Tr[quadrupol]      -823.349953

 energy correction for charged system         0.000000 eV
 dipol+quadrupol energy correction            0.087396 eV
 added-field ion interaction          0.000000 eV  (added to PSCEN)


 Broyden mixing:
  rms(total) = 0.27591E+02    rms(broyden)= 0.27590E+02
  rms(prec ) = 0.27741E+02
  weight for this iteration     100.00

 eigenvalues of (default mixing * dielectric matrix)
  average eigenvalue GAMMA=   0.3994
  1.3059  0.4730  0.4730  0.4587  0.4587  0.2098  0.0985  0.0585  0.0585

 Free energy of the ion-electron system (eV)
  ---------------------------------------------------
  alpha Z        PSCENC =        -2.30838228
  Ewald energy   TEWEN  =     19836.83904480
  -Hartree energ DENC   =    -26797.25222776
  -exchange      EXHF   =         0.00000000
  -V(xc)+E(xc)   XCENC  =      -523.18824855
  PAW double counting   =   4230639.58916484 -4230001.10512916
  entropy T*S    EENTRO =        -0.12423663
  eigenvalues    EBANDS =      -314.56612492
  atomic energy  EATOM  =      6859.63447978
  Solvation  Ediel_sol  =         0.00000000
  ---------------------------------------------------
  free energy    TOTEN  =      -302.48165988 eV

  energy without entropy =     -302.35742326  energy(sigma->0) =     -302.41954157


--------------------------------------------------------------------------------------------------------




--------------------------------------- Iteration      1(  15)  ---------------------------------------


    POTLOK:  cpu time    0.0132: real time    0.0132
    SETDIJ:  cpu time    0.0740: real time    0.0747
    EDDIAG:  cpu time    0.0779: real time    0.1306
  RMM-DIIS:  cpu time    0.1007: real time    0.1016
    ORTHCH:  cpu time    0.0112: real time    0.0112
       DOS:  cpu time    0.0005: real time    0.0005
    CHARGE:  cpu time    0.0227: real time    0.0233
    MIXING:  cpu time    0.0008: real time    0.0008
    --------------------------------------------
      LOOP:  cpu time    0.3009: real time    0.3558

 eigenvalue-minimisations  :  1025
 total energy-change (2. order) : 0.4680759E+01  (-0.2583055E+00)
 number of electron     127.9999871 magnetization 
 augmentation part       12.8417506 magnetization 

 DIPCOR: dipole corrections for dipol
 direction  3 min pos     3,
 dipolmoment           0.488282     -0.488282      0.690535 electrons x Angstroem
 Tr[quadrupol]      -823.738247

 energy correction for charged system         0.000000 eV
 dipol+quadrupol energy correction            0.062398 eV
 added-field ion interaction          0.000000 eV  (added to PSCEN)


 Broyden mixing:
  rms(total) = 0.26661E+02    rms(broyden)= 0.26660E+02
  rms(prec ) = 0.26835E+02
  weight for this iteration     100.00

 eigenvalues of (default mixing * dielectric matrix)
  average eigenvalue GAMMA=   0.3760
  1.3138  0.4907  0.4907  0.4722  0.4722  0.2133  0.0695  0.1083  0.0647  0.0647

 Free energy of the ion-electron system (eV)
  ---------------------------------------------------
  alpha Z        PSCENC =        -2.33338065
  Ewald energy   TEWEN  =     19836.83904480
  -Hartree energ DENC   =    -26812.25840001
  -exchange      EXHF   =         0.00000000
  -V(xc)+E(xc)   XCENC  =      -522.83936744
  PAW double counting   =   4099297.59691335 -4098661.54219758
  entropy T*S    EENTRO =        -0.11436442
  eigenvalues    EBANDS =      -292.78362833
  atomic energy  EATOM  =      6859.63447978
  Solvation  Ediel_sol  =         0.00000000
  ---------------------------------------------------
  free energy    TOTEN  =      -297.80090051 eV

  energy without entropy =     -297.68653609  energy(sigma->0) =     -297.74371830


--------------------------------------------------------------------------------------------------------




--------------------------------------- Iteration      1(  16)  ---------------------------------------


    POTLOK:  cpu time    0.0132: real time    0.0132
    SETDIJ:  cpu time    0.0434: real time    0.0434
    EDDIAG:  cpu time    0.0644: real time    0.0644
  RMM-DIIS:  cpu time    0.1039: real time    0.1077
    ORTHCH:  cpu time    0.0113: real time    0.0113
       DOS:  cpu time    0.0005: real time    0.0005
    CHARGE:  cpu time    0.0177: real time    0.0177
    MIXING:  cpu time    0.0010: real time    0.0010
    --------------------------------------------
      LOOP:  cpu time    0.2554: real time    0.2591

 eigenvalue-minimisations  :  1080
 total energy-change (2. order) : 0.2441165E+01  (-0.3949979E-01)
 number of electron     127.9999873 magnetization 
 augmentation part       12.1134211 magnetization 

 DIPCOR: dipole corrections for dipol
 direction  3 min pos     3,
 dipolmoment           0.536711     -0.536711      0.759024 electrons x Angstroem
 Tr[quadrupol]      -824.309800

 energy correction for charged system         0.000000 eV
 dipol+quadrupol energy correction            0.075389 eV
 added-field ion interaction          0.000000 eV  (added to PSCEN)


 Broyden mixing:
  rms(total) = 0.27076E+02    rms(broyden)= 0.27076E+02
  rms(prec ) = 0.27243E+02
  weight for this iteration     100.00

 eigenvalues of (default mixing * dielectric matrix)
  average eigenvalue GAMMA=   0.3537
  1.3392  0.4904  0.4904  0.4709  0.4709  0.2200  0.0876  0.0876  0.1060  0.0640
  0.0640

 Free energy of the ion-electron system (eV)
  ---------------------------------------------------
  alpha Z        PSCENC =        -2.32038927
  Ewald energy   TEWEN  =     19836.83904480
  -Hartree energ DENC   =    -26817.95798303
  -exchange      EXHF   =         0.00000000
  -V(xc)+E(xc)   XCENC  =      -522.77719848
  PAW double counting   =   4086901.56204757 -4086265.42986103
  entropy T*S    EENTRO =        -0.12859876
  eigenvalues    EBANDS =      -284.78127754
  atomic energy  EATOM  =      6859.63447978
  Solvation  Ediel_sol  =         0.00000000
  ---------------------------------------------------
  free energy    TOTEN  =      -295.35973596 eV

  energy without entropy =     -295.23113720  energy(sigma->0) =     -295.29543658


--------------------------------------------------------------------------------------------------------




--------------------------------------- Iteration      1(  17)  ---------------------------------------


    POTLOK:  cpu time    0.0135: real time    0.0135
    SETDIJ:  cpu time    0.0449: real time    0.0449
    EDDIAG:  cpu time    0.0634: real time    0.0642
  RMM-DIIS:  cpu time    0.0959: real time    0.0964
    ORTHCH:  cpu time    0.0111: real time    0.0111
       DOS:  cpu time    0.0006: real time    0.0006
    CHARGE:  cpu time    0.0176: real time    0.0176
    MIXING:  cpu time    0.0065: real time    0.0065
    --------------------------------------------
      LOOP:  cpu time    0.2534: real time    0.2548

 eigenvalue-minimisations  :   991
 total energy-change (2. order) : 0.1336714E+01  (-0.5359084E-01)
 number of electron     127.9999864 magnetization 
 augmentation part       12.7740102 magnetization 

 DIPCOR: dipole corrections for dipol
 direction  3 min pos     3,
 dipolmoment           0.461836     -0.461836      0.653135 electrons x Angstroem
 Tr[quadrupol]      -823.602341

 energy correction for charged system         0.000000 eV
 dipol+quadrupol energy correction            0.055822 eV
 added-field ion interaction          0.000000 eV  (added to PSCEN)


 Broyden mixing:
  rms(total) = 0.25493E+02    rms(broyden)= 0.25492E+02
  rms(prec ) = 0.25661E+02
  weight for this iteration     100.00

 eigenvalues of (default mixing * dielectric matrix)
  average eigenvalue GAMMA=   0.3406
  1.3535  0.4950  0.4950  0.4789  0.4789  0.2243  0.1425  0.1425  0.1098  0.0642
  0.0642  0.0384

 Free energy of the ion-electron system (eV)
  ---------------------------------------------------
  alpha Z        PSCENC =        -2.33995667
  Ewald energy   TEWEN  =     19836.83904480
  -Hartree energ DENC   =    -26804.39548491
  -exchange      EXHF   =         0.00000000
  -V(xc)+E(xc)   XCENC  =      -523.00515427
  PAW double counting   =   4087479.29407413 -4086844.56947764
  entropy T*S    EENTRO =        -0.15214078
  eigenvalues    EBANDS =      -295.32840654
  atomic energy  EATOM  =      6859.63447978
  Solvation  Ediel_sol  =         0.00000000
  ---------------------------------------------------
  free energy    TOTEN  =      -294.02302211 eV

  energy without entropy =     -293.87088133  energy(sigma->0) =     -293.94695172


--------------------------------------------------------------------------------------------------------




--------------------------------------- Iteration      1(  18)  ---------------------------------------


    POTLOK:  cpu time    0.0130: real time    0.0151
    SETDIJ:  cpu time    0.0426: real time    0.0445
    EDDIAG:  cpu time    0.0633: real time    0.0648
  RMM-DIIS:  cpu time    0.0965: real time    0.0966
    ORTHCH:  cpu time    0.0110: real time    0.0110
       DOS:  cpu time    0.0005: real time    0.0005
    CHARGE:  cpu time    0.0173: real time    0.0173
    MIXING:  cpu time    0.0009: real time    0.0009
    --------------------------------------------
      LOOP:  cpu time    0.2451: real time    0.2506

 eigenvalue-minimisations  :   990
 total energy-change (2. order) : 0.2825680E+01  (-0.2659651E-01)
 number of electron     127.9999863 magnetization 
 augmentation part       14.0776940 magnetization 

 DIPCOR: dipole corrections for dipol
 direction  3 min pos     3,
 dipolmoment           0.415758     -0.415758      0.587971 electrons x Angstroem
 Tr[quadrupol]      -822.846567

 energy correction for charged system         0.000000 eV
 dipol+quadrupol energy correction            0.045238 eV
 added-field ion interaction          0.000000 eV  (added to PSCEN)


 Broyden mixing:
  rms(total) = 0.23661E+02    rms(broyden)= 0.23661E+02
  rms(prec ) = 0.23838E+02
  weight for this iteration     100.00

 eigenvalues of (default mixing * dielectric matrix)
  average eigenvalue GAMMA=   0.3599
  1.2394  0.5540  0.5540  0.4695  0.4695  0.3692  0.3692  0.2102  0.1683  0.0848
  0.0673  0.0673  0.0564

 Free energy of the ion-electron system (eV)
  ---------------------------------------------------
  alpha Z        PSCENC =        -2.35053977
  Ewald energy   TEWEN  =     19836.83904480
  -Hartree energ DENC   =    -26793.44807107
  -exchange      EXHF   =         0.00000000
  -V(xc)+E(xc)   XCENC  =      -523.16319931
  PAW double counting   =   4079789.34929758 -4079155.59428956
  entropy T*S    EENTRO =        -0.09317943
  eigenvalues    EBANDS =      -302.37088488
  atomic energy  EATOM  =      6859.63447978
  Solvation  Ediel_sol  =         0.00000000
  ---------------------------------------------------
  free energy    TOTEN  =      -291.19734185 eV

  energy without entropy =     -291.10416243  energy(sigma->0) =     -291.15075214


--------------------------------------------------------------------------------------------------------




--------------------------------------- Iteration      1(  19)  ---------------------------------------


    POTLOK:  cpu time    0.0133: real time    0.0133
    SETDIJ:  cpu time    0.0436: real time    0.0442
    EDDIAG:  cpu time    0.0641: real time    0.0643
  RMM-DIIS:  cpu time    0.1267: real time    0.1273
    ORTHCH:  cpu time    0.0117: real time    0.0117
       DOS:  cpu time    0.0005: real time    0.0005
    CHARGE:  cpu time    0.0174: real time    0.0174
    MIXING:  cpu time    0.0010: real time    0.0010
    --------------------------------------------
      LOOP:  cpu time    0.2783: real time    0.2797

 eigenvalue-minimisations  :  1314
 total energy-change (2. order) :-0.8670222E+01  (-0.4680720E+00)
 number of electron     127.9999868 magnetization 
 augmentation part       11.9818021 magnetization 

 DIPCOR: dipole corrections for dipol
 direction  3 min pos     3,
 dipolmoment           0.347782     -0.347782      0.491838 electrons x Angstroem
 Tr[quadrupol]      -825.169142

 energy correction for charged system         0.000000 eV
 dipol+quadrupol energy correction            0.031655 eV
 added-field ion interaction          0.000000 eV  (added to PSCEN)


 Broyden mixing:
  rms(total) = 0.29572E+02    rms(broyden)= 0.29570E+02
  rms(prec ) = 0.29724E+02
  weight for this iteration     100.00

 eigenvalues of (default mixing * dielectric matrix)
  average eigenvalue GAMMA=   0.3433
  1.1900  0.5553  0.5553  0.4698  0.4698  0.4046  0.4046  0.2211  0.1242  0.1242
  0.1036  0.0646  0.0646  0.0537

 Free energy of the ion-electron system (eV)
  ---------------------------------------------------
  alpha Z        PSCENC =        -2.36412341
  Ewald energy   TEWEN  =     19836.83904480
  -Hartree energ DENC   =    -26807.26627762
  -exchange      EXHF   =         0.00000000
  -V(xc)+E(xc)   XCENC  =      -523.03574412
  PAW double counting   =   4147196.18938306 -4146562.93974530
  entropy T*S    EENTRO =        -0.20032209
  eigenvalues    EBANDS =      -296.72425882
  atomic energy  EATOM  =      6859.63447978
  Solvation  Ediel_sol  =         0.00000000
  ---------------------------------------------------
  free energy    TOTEN  =      -299.86756372 eV

  energy without entropy =     -299.66724162  energy(sigma->0) =     -299.76740267


--------------------------------------------------------------------------------------------------------




--------------------------------------- Iteration      1(  20)  ---------------------------------------


    POTLOK:  cpu time    0.0133: real time    0.0133
    SETDIJ:  cpu time    0.0453: real time    0.0453
    EDDIAG:  cpu time    0.0900: real time    0.1102
  RMM-DIIS:  cpu time    0.1560: real time    0.1639
    ORTHCH:  cpu time    0.0117: real time    0.0161
       DOS:  cpu time    0.0005: real time    0.0044
    CHARGE:  cpu time    0.0189: real time    0.0190
    MIXING:  cpu time    0.0010: real time    0.0010
    --------------------------------------------
      LOOP:  cpu time    0.3368: real time    0.3733

 eigenvalue-minimisations  :  1248
 total energy-change (2. order) :-0.5541592E+01  (-0.2905843E+00)
 number of electron     127.9999887 magnetization 
 augmentation part       10.3716468 magnetization 

 DIPCOR: dipole corrections for dipol
 direction  3 min pos     3,
 dipolmoment           0.844941     -0.844941      1.194928 electrons x Angstroem
 Tr[quadrupol]      -823.316883

 energy correction for charged system         0.000000 eV
 dipol+quadrupol energy correction            0.186844 eV
 added-field ion interaction          0.000000 eV  (added to PSCEN)


 Broyden mixing:
  rms(total) = 0.29019E+02    rms(broyden)= 0.29016E+02
  rms(prec ) = 0.29611E+02
  weight for this iteration     100.00

 eigenvalues of (default mixing * dielectric matrix)
  average eigenvalue GAMMA=   0.3283
  1.1892  0.5602  0.5602  0.4763  0.4763  0.4134  0.4134  0.2151  0.1486  0.1030
  0.1030  0.0816  0.0552  0.0644  0.0644

 Free energy of the ion-electron system (eV)
  ---------------------------------------------------
  alpha Z        PSCENC =        -2.20893415
  Ewald energy   TEWEN  =     19836.83904480
  -Hartree energ DENC   =    -26817.08320439
  -exchange      EXHF   =         0.00000000
  -V(xc)+E(xc)   XCENC  =      -522.53659673
  PAW double counting   =   3870858.96397306 -3870232.20156777
  entropy T*S    EENTRO =        -0.10859240
  eigenvalues    EBANDS =      -286.70775838
  atomic energy  EATOM  =      6859.63447978
  Solvation  Ediel_sol  =         0.00000000
  ---------------------------------------------------
  free energy    TOTEN  =      -305.40915619 eV

  energy without entropy =     -305.30056379  energy(sigma->0) =     -305.35485999


[...]
     53       2.6543      2.00000
     54       3.0256      2.00000
     55       3.3006      2.00000
     56       3.3578      2.00000
     57       3.5452      2.00000
     58       3.5367      2.00000
     59       3.7995      2.00000
     60       4.0739      1.99920
     61       4.0668      1.99945
     62       4.1838      1.92807
     63       4.2689      1.44890
     64       4.2810      1.32910
     65       4.3640      0.45446
     66       4.6739      0.00000
     67       4.7193      0.00000
     68       4.7583      0.00000
     69       4.7763      0.00000
     70       4.8292      0.00000
     71       4.8924      0.00000
     72       4.9555      0.00000
     73       5.2845      0.00000
     74       5.4051      0.00000
     75       5.4411      0.00000
     76       5.8034      0.00000
     77       6.3164      0.00000
     78       6.3458      0.00000
     79       6.5257      0.00000
     80       6.7748      0.00000
     81       6.7781      0.00000
     82       6.9600      0.00000
     83       7.9788      0.00000
     84       9.2651      0.00000
     85      10.1598      0.00000
     86      27.7940      0.00000
     87      27.8486      0.00000
     88      28.2403      0.00000

 k-point     4 :       0.3333    0.3333    0.0000
  band No.  band energies     occupation 
      1     -17.1072      2.00000
      2     -16.7913      2.00000
      3     -16.1470      2.00000
      4     -15.3380      2.00000
      5     -14.4789      2.00000
      6     -13.7324      2.00000
      7     -13.0276      2.00000
      8     -11.3659      2.00000
      9     -10.2479      2.00000
     10     -10.1994      2.00000
     11     -10.0995      2.00000
     12      -9.2804      2.00000
     13      -7.5103      2.00000
     14      -7.2263      2.00000
     15      -5.9048      2.00000
     16      -5.7392      2.00000
     17      -5.6627      2.00000
     18      -5.3910      2.00000
     19      -5.0772      2.00000
     20      -4.8379      2.00000
     21      -4.3181      2.00000
     22      -4.1886      2.00000
     23      -4.1393      2.00000
     24      -3.6093      2.00000
     25      -3.3439      2.00000
     26      -2.9090      2.00000
     27      -2.6791      2.00000
     28      -2.4083      2.00000
     29      -2.3184      2.00000
     30      -2.1773      2.00000
     31      -1.9822      2.00000
     32      -1.2178      2.00000
     33      -0.5715      2.00000
     34      -0.3610      2.00000
     35       0.0637      2.00000
     36      -0.0122      2.00000
     37       0.1851      2.00000
     38       0.2801      2.00000
     39       0.3815      2.00000
     40       0.5557      2.00000
     41       1.0019      2.00000
     42       1.2919      2.00000
     43       1.3018      2.00000
     44       1.4436      2.00000
     45       1.5835      2.00000
     46       1.6252      2.00000
     47       1.7312      2.00000
     48       1.9862      2.00000
     49       2.1789      2.00000
     50       2.2719      2.00000
     51       2.5186      2.00000
     52       2.7074      2.00000
     53       2.9088      2.00000
     54       3.0665      2.00000
     55       3.2394      2.00000
     56       3.3082      2.00000
     57       3.3565      2.00000
     58       3.4874      2.00000
     59       3.7883      2.00000
     60       3.8288      2.00000
     61       3.8396      2.00000
     62       4.0976      1.99746
     63       4.1227      1.99228
     64       4.2669      1.46738
     65       4.3265      0.82715
     66       4.4079      0.17102
     67       4.4747      0.02063
     68       4.6154      0.00002
     69       4.7498      0.00000
     70       4.8129      0.00000
     71       4.8787      0.00000
     72       4.8997      0.00000
     73       5.0066      0.00000
     74       5.4173      0.00000
     75       5.8858      0.00000
     76       6.0181      0.00000
     77       6.3635      0.00000
     78       6.6954      0.00000
     79       6.7886      0.00000
     80       6.9722      0.00000
     81       7.3302      0.00000
     82       7.7115      0.00000
     83       8.2350      0.00000
     84       9.2659      0.00000
     85      10.1600      0.00000
     86      27.7943      0.00000
     87      27.9085      0.00000
     88      28.2430      0.00000


--------------------------------------------------------------------------------------------------------


 soft charge-density along one line, spin component           1
         0         1         2         3         4         5         6         7         8         9
 total charge-density along one line
 
 pseudopotential strength for first ion, spin component:           1
  1.440   6.453  -0.001   0.008   0.001
  6.453  28.481  -0.002   0.054   0.002
 -0.001  -0.002   5.381   0.001  -0.001
  0.008   0.054   0.001   5.381  -0.001
  0.001   0.002  -0.001  -0.001   5.381
 total augmentation occupancy for first ion, spin component:           1
  2.277   0.007  -0.011   0.185   0.011
  0.007   0.000  -0.000   0.000   0.000
 -0.011  -0.000   0.035   0.001  -0.004
  0.185   0.000   0.001   0.043  -0.001
  0.011   0.000  -0.004  -0.001   0.035


------------------------ aborting loop EDIFF was not reached (unconverged)  ----------------------------


 -----------------------------------------------------------------------------
|                                                                             |
|           W    W    AA    RRRRR   N    N  II  N    N   GGGG   !!!           |
|           W    W   A  A   R    R  NN   N  II  NN   N  G    G  !!!           |
|           W    W  A    A  R    R  N N  N  II  N N  N  G       !!!           |
|           W WW W  AAAAAA  RRRRR   N  N N  II  N  N N  G  GGG   !            |
|           WW  WW  A    A  R   R   N   NN  II  N   NN  G    G                |
|           W    W  A    A  R    R  N    N  II  N    N   GGGG   !!!           |
|                                                                             |
|     The electronic self-consistency was not achieved in the given           |
|     number of steps (NELM). The forces and other quantities evaluated       |
|     might not be reliable so examine the results carefully. If you find     |
|     spurious results, we suggest increasing NELM, if you were close to      |
|     convergence or switching to a different ALGO or adjusting the           |
|     density mixing parameters otherwise.                                    |
|                                                                             |
 -----------------------------------------------------------------------------

    CHARGE:  cpu time    0.0174: real time    0.0173
    FORLOC:  cpu time    0.0017: real time    0.0017
    FORNL :  cpu time    0.0385: real time    0.0396
    STRESS:  cpu time    0.1743: real time    0.2301
    FORCOR:  cpu time    0.0140: real time    0.0144
    FORHAR:  cpu time    0.0045: real time    0.0046
    MIXING:  cpu time    0.0028: real time    0.0028
    OFIELD:  cpu time    0.0004: real time    0.0007

  FORCE on cell =-STRESS in cart. coord.  units (eV):
  Direction    XX          YY          ZZ          XY          YZ          ZX
  --------------------------------------------------------------------------------------
  Alpha Z    -2.39578    -2.39578    -2.39578
  Ewald   23467.17229 23467.17229-27234.30901  -342.66390  -478.57088   478.57085
  Hartree 29090.33230 29090.33230-27333.40136  -119.35539  -261.75514   261.75516
  E(xc)    -577.00095  -577.00095  -577.42180     0.17904    -0.85196     0.85196
  Local  -53984.37550-53984.37547 52500.64399   542.42649   755.30487  -755.30485
  n-local   208.48661   207.60830   180.90614    10.95204    20.82747   -19.05103
  augment   179.03308   179.03308   187.17099    -0.41490    -2.43743     2.41067
  Kinetic  2267.69897  2261.86842  2319.00715   -22.99442   -35.83762    33.22296
  Fock        0.00000     0.00000     0.00000     0.00000     0.00000     0.00000
  -------------------------------------------------------------------------------------
  Total     645.59661   645.59661    40.20031    68.12798    -2.88997     2.88914
  in kB    1496.00338  1496.00338    93.15384   157.86900    -6.69676     6.69483
  external pressure =     1028.39 kB  Pullay stress =        0.00 kB


 VOLUME and BASIS-vectors are now :
 -----------------------------------------------------------------------------
  energy-cutoff  :      400.00
  volume of cell :      691.42
      direct lattice vectors                 reciprocal lattice vectors
    -3.151842525 -3.151842525  0.000000000    -0.158637367 -0.158637367  0.000000000
     4.457378445 -4.457378445  0.000000000     0.112173558 -0.112173558 -0.158637367
    17.400039591-17.400039591 24.607371976     0.000000000  0.000000000  0.040638228

  length of vectors
     4.457378445  6.303685050 34.800079183     0.224347116  0.224347116  0.040638228


 FORCES acting on ions
    electron-ion (+dipol)            ewald-force                    non-local-force                 convergence-correction
 -----------------------------------------------------------------------------------------------
   -.391E+01 0.391E+01 0.164E+03   -.364E+01 0.364E+01 -.170E+03   -.248E+00 0.248E+00 -.445E+01   0.370E+01 -.370E+01 0.121E+01
   -.597E+01 0.597E+01 0.177E+03   0.364E+01 -.364E+01 -.168E+03   -.489E+00 0.489E+00 -.330E+01   0.200E+01 -.200E+01 -.937E+01
   0.388E+01 -.388E+01 0.163E+03   0.364E+01 -.364E+01 -.172E+03   0.242E+00 -.242E+00 -.464E+01   -.371E+01 0.371E+01 0.331E+01
   -.106E+01 0.106E+01 0.171E+03   -.364E+01 0.364E+01 -.165E+03   -.266E+01 0.266E+01 -.465E+01   0.256E+01 -.256E+01 -.861E+01
   0.738E+01 -.738E+01 0.148E+03   -.179E-01 0.179E-01 -.120E+03   -.325E+00 0.325E+00 -.756E+00   -.502E+01 0.502E+01 -.238E+02
   0.169E+01 -.169E+01 0.176E+03   0.364E+01 -.364E+01 -.166E+03   0.780E+00 -.780E+00 -.335E+01   -.255E+01 0.255E+01 -.109E+02
   0.151E+02 -.151E+02 0.157E+03   0.179E-01 -.179E-01 -.119E+03   -.341E+01 0.341E+01 -.563E+01   -.628E+01 0.628E+01 -.257E+02
   0.101E+01 -.101E+01 0.884E+02   -.179E-01 0.179E-01 -.691E+02   0.169E+00 -.169E+00 0.418E+00   -.818E+00 0.818E+00 -.193E+02
   -.141E+02 0.141E+02 0.155E+03   -.179E-01 0.179E-01 -.120E+03   0.185E+01 -.185E+01 -.259E+01   0.630E+01 -.630E+01 -.244E+02
   0.203E+01 -.203E+01 0.903E+02   0.179E-01 -.179E-01 -.691E+02   0.344E+00 -.344E+00 0.224E+01   -.104E+01 0.104E+01 -.200E+02
   -.181E+01 0.181E+01 0.278E+02   -.309E-05 -.207E-04 -.188E+02   -.197E+00 0.197E+00 -.257E+00   0.150E+01 -.150E+01 -.947E+01
   -.213E+01 0.213E+01 0.966E+02   -.179E-01 0.179E-01 -.691E+02   -.142E-01 0.142E-01 0.617E-01   0.104E+01 -.104E+01 -.239E+02
   -.394E+01 0.394E+01 0.260E+02   0.857E-05 0.148E-05 -.188E+02   0.126E+01 -.126E+01 -.508E+01   0.182E+01 -.182E+01 -.933E+01
   0.184E+01 -.184E+01 -.300E+02   -.303E-05 -.208E-04 0.314E+02   0.694E+00 -.694E+00 0.696E+00   -.180E+01 0.180E+01 -.145E+01
   0.376E+01 -.376E+01 0.291E+02   0.479E-05 0.190E-04 -.188E+02   -.494E+00 0.494E+00 0.933E+00   -.183E+01 0.183E+01 -.121E+02
   0.447E+01 -.447E+01 -.256E+02   0.854E-05 0.151E-05 0.314E+02   0.258E+01 -.258E+01 0.361E+01   -.238E+01 0.238E+01 -.226E+01
   -.136E+01 0.136E+01 -.949E+02   0.179E-01 -.179E-01 0.815E+02   0.100E+01 -.100E+01 0.139E+01   0.172E+00 -.172E+00 0.113E+02
   -.504E+01 0.504E+01 -.294E+02   0.486E-05 0.190E-04 0.314E+02   0.136E+00 -.136E+00 0.107E+01   0.236E+01 -.236E+01 -.512E+00
   -.159E+01 0.159E+01 -.944E+02   -.179E-01 0.179E-01 0.818E+02   0.263E+01 -.263E+01 0.663E+01   0.173E+00 -.173E+00 0.114E+02
   -.415E+01 0.415E+01 -.152E+03   0.179E-01 -.179E-01 0.131E+03   0.122E+01 -.122E+01 0.173E+01   0.250E+01 -.250E+01 0.186E+02
   0.119E+01 -.119E+01 -.970E+02   0.179E-01 -.179E-01 0.818E+02   -.672E+00 0.672E+00 0.266E+01   -.192E+00 0.192E+00 0.120E+02
   -.821E+01 0.821E+01 -.164E+03   -.179E-01 0.179E-01 0.132E+03   -.519E+01 0.519E+01 -.154E+02   0.305E+01 -.305E+01 0.194E+02
   0.396E+01 -.396E+01 -.187E+03   -.364E+01 0.364E+01 0.173E+03   -.146E+01 0.146E+01 0.348E+01   0.634E+00 -.634E+00 0.143E+02
   0.574E+01 -.574E+01 -.159E+03   0.179E-01 -.179E-01 0.133E+03   -.413E+00 0.413E+00 0.473E+01   -.309E+01 0.309E+01 0.205E+02
   -.940E+01 0.940E+01 0.102E+04   -.218E+02 0.218E+02 -.989E+03   -.129E+00 0.129E+00 -.196E+00   0.312E+02 -.312E+02 -.267E+02
   0.849E+02 -.849E+02 0.934E+03   0.107E+00 -.107E+00 -.712E+03   -.841E+00 0.841E+00 -.899E+00   -.830E+02 0.830E+02 -.215E+03
   0.125E+02 -.125E+02 0.543E+03   0.107E+00 -.107E+00 -.414E+03   -.894E+00 0.894E+00 -.381E+00   -.119E+02 0.119E+02 -.128E+03
   -.219E+02 0.219E+02 0.156E+03   0.514E-04 0.888E-05 -.113E+03   -.325E+00 0.325E+00 0.419E+01   0.216E+02 -.216E+02 -.423E+02
   0.283E+02 -.283E+02 -.153E+03   0.512E-04 0.906E-05 0.189E+03   -.165E+01 0.165E+01 -.326E+01   -.282E+02 0.282E+02 -.349E+02
   -.694E+01 0.694E+01 -.564E+03   -.107E+00 0.107E+00 0.491E+03   -.947E+00 0.947E+00 0.228E+00   0.681E+01 -.681E+01 0.715E+02
   -.440E+02 0.440E+02 -.959E+03   -.107E+00 0.107E+00 0.791E+03   0.336E+01 -.336E+01 0.182E+02   0.464E+02 -.464E+02 0.172E+03
   -.341E+02 0.341E+02 -.111E+04   0.218E+02 -.218E+02 0.103E+04   0.749E+00 -.749E+00 -.622E+01   0.131E+02 -.131E+02 0.970E+02
   0.435E+02 -.435E+02 0.124E+04   -.254E+02 0.254E+02 -.117E+04   -.105E+01 0.105E+01 -.429E+01   -.184E+02 0.184E+02 -.795E+02
   -.489E+02 0.489E+02 0.101E+04   0.125E+00 -.125E+00 -.833E+03   0.309E+00 -.309E+00 0.109E+00   0.485E+02 -.485E+02 -.177E+03
   -.737E+01 0.737E+01 0.648E+03   0.125E+00 -.125E+00 -.484E+03   0.323E+00 -.323E+00 0.658E+00   0.733E+01 -.733E+01 -.165E+03
   0.131E+02 -.131E+02 0.209E+03   -.614E-04 -.891E-05 -.132E+03   0.566E+00 -.566E+00 0.134E+01   -.132E+02 0.132E+02 -.771E+02
   -.137E+02 0.137E+02 -.221E+03   -.618E-04 -.847E-05 0.220E+03   -.417E+00 0.417E+00 0.155E+00   0.144E+02 -.144E+02 0.136E+01
   0.282E+01 -.282E+01 -.666E+03   -.125E+00 0.125E+00 0.571E+03   0.463E+00 -.463E+00 0.189E+01   -.327E+01 0.327E+01 0.947E+02
   0.230E+02 -.230E+02 -.106E+04   -.125E+00 0.125E+00 0.910E+03   0.499E-01 -.499E-01 0.462E+00   -.234E+02 0.234E+02 0.153E+03
   -.190E+02 0.190E+02 -.131E+04   0.254E+02 -.254E+02 0.120E+04   0.608E+00 -.608E+00 0.192E+01   -.571E+01 0.571E+01 0.108E+03
 -----------------------------------------------------------------------------------------------
   0.168E+01 -.166E+01 0.355E+03   0.213E-13 -.249E-13 -.455E-12   -.248E+01 0.248E+01 -.661E+01   0.135E+01 -.135E+01 -.336E+03
 
 
 POSITION                                       TOTAL-FORCE (eV/Angst)
 -----------------------------------------------------------------------------------
      4.89541     -8.04725      6.00000        -4.107456      4.107456     -9.578306
      7.58567     -7.58567      7.57592        -0.834118      0.834118     -3.784661
      7.12410    -10.27594      6.00000         4.035662     -4.035662    -10.083994
      6.00975     -9.16160      7.57592        -4.813945      4.813945     -7.476393
      8.70002     -8.70002      9.15184         2.006292     -2.006292      2.514724
      8.23844    -11.39029      7.57592         3.544304     -3.544304     -4.464289
      7.12410    -10.27594      9.15184         5.454849     -5.454849      6.797643
      9.81436     -9.81436     10.72776         0.329385     -0.329385      0.136947
      9.35279    -12.50463      9.15184        -5.974361      5.974361      7.819908
      8.23844    -11.39029     10.72776         1.336220     -1.336220      3.200611
     10.92871    -10.92871     12.30369        -0.516939      0.516939     -1.078795
     10.46713    -13.61897     10.72776        -1.132824      1.132824      3.449354
      9.35279    -12.50463     12.30369        -0.873323      0.873323     -7.549737
     12.04305    -12.04305     13.87961         0.721130     -0.721130      0.321474
     11.58148    -14.73332     12.30369         1.422374     -1.422374     -1.220779
     10.46713    -13.61897     13.87961         4.661765     -4.661765      6.883842
     13.15740    -13.15740     15.45553        -0.176331      0.176331     -1.038184
     12.69582    -15.84766     13.87961        -2.561816      2.561816      2.249220
     11.58148    -14.73332     15.45553         1.181055     -1.181055      5.150176
     14.27174    -14.27174     17.03145        -0.430141      0.430141     -0.810234
     13.81017    -16.96201     15.45553         0.325059     -0.325059     -0.791866
     12.69582    -15.84766     17.03145       -10.381703     10.381703    -28.175969
     15.38609    -15.38609     18.60737        -0.515509      0.515509      3.461101
     14.92451    -18.07635     17.03145         2.248518     -2.248518     -1.251479
      6.00975     -9.16160      7.57592        -0.113073      0.113073      3.664878
      7.12410    -10.27594      9.15184         1.216041     -1.216041      5.704371
      8.23844    -11.39029     10.72776        -0.227655      0.227655      0.000841
      9.35279    -12.50463     12.30369        -0.686714      0.686714      5.024428
     10.46713    -13.61897     13.87961        -1.625455      1.625455     -3.280782
     11.58148    -14.73332     15.45553        -1.203027      1.203027     -1.820589
     12.69582    -15.84766     17.03145         5.658281     -5.658281     21.988013
     13.81017    -16.96201     18.60737         1.595967     -1.595967      6.077575
      9.81436     -9.81436      7.57592        -1.374942      1.374942     -6.965462
     10.92871    -10.92871      9.15184        -0.012696      0.012696     -0.368666
     12.04305    -12.04305     10.72776         0.389560     -0.389560     -0.030579
     13.15740    -13.15740     12.30369         0.469868     -0.469868      0.613274
     14.27174    -14.27174     13.87961         0.296770     -0.296770      0.306132
     15.38609    -15.38609     15.45553        -0.117941      0.117941      0.504814
     16.50043    -16.50043     17.03145        -0.543443      0.543443     -0.008669
     17.61478    -17.61478     18.60737         1.330313     -1.330313      3.910104
 -----------------------------------------------------------------------------------
    total drift:                                0.548979     -0.534194     11.906116


--------------------------------------------------------------------------------------------------------



  FREE ENERGIE OF THE ION-ELECTRON SYSTEM (eV)
  ---------------------------------------------------
  free  energy   TOTEN  =      -471.18867359 eV

  energy  without entropy=     -471.06780950  energy(sigma->0) =     -471.12824155
 


--------------------------------------------------------------------------------------------------------


    POTLOK:  cpu time    0.0585: real time    0.0590


--------------------------------------------------------------------------------------------------------


     LOOP+:  cpu time   47.1568: real time   49.4094
    4ORBIT:  cpu time    0.0000: real time    0.0000

 total amount of memory used by VASP MPI-rank0    35436. kBytes
=======================================================================

   base      :      30000. kBytes
   nonlr-proj:       1861. kBytes
   fftplans  :       1050. kBytes
   grid      :       1942. kBytes
   one-center:          9. kBytes
   wavefun   :        574. kBytes
 
  
  
 General timing and accounting informations for this job:
 ========================================================
  
                  Total CPU time used (sec):       47.967
                            User time (sec):       46.745
                          System time (sec):        1.222
                         Elapsed time (sec):       50.414
  
                   Maximum memory used (kb):      114852.
                   Average memory used (kb):          N/A
  
                          Minor page faults:       108294
                          Major page faults:            0
                 Voluntary context switches:         3292
