unknown system                          
           1
    -3.151843   -3.151843    0.000000
     4.457378   -4.457378    0.000000
    17.400040  -17.400040   24.607372
   Na   O    Cl
    24     8     8
Direct configuration=     1
   0.50000017  0.49999983  0.24382937
   0.00000010  0.49999983  0.30787203
   0.50000017  0.99999990  0.24382937
   0.50000017  0.49999983  0.30787203
   0.00000010  0.49999983  0.37191468
   0.50000017  0.99999990  0.30787203
   0.50000017  0.49999983  0.37191468
   0.00000010  0.49999983  0.43595734
   0.50000017  0.99999990  0.37191468
   0.50000017  0.49999983  0.43595734
   0.00000010  0.49999983  0.50000000
   0.50000017  0.99999990  0.43595734
   0.50000017  0.49999983  0.50000000
   0.00000010  0.49999983  0.56404266
   0.50000017  0.99999990  0.50000000
   0.50000017  0.49999983  0.56404266
   0.00000010  0.49999983  0.62808532
   0.50000017  0.99999990  0.56404266
   0.50000017  0.49999983  0.62808532
   0.00000010  0.49999983  0.69212797
   0.50000017  0.99999990  0.62808532
   0.50000017  0.49999983  0.69212797
   0.00000010  0.49999983  0.75617063
   0.50000017  0.99999990  0.69212797
   0.50000017  0.49999983  0.30787203
   0.50000017  0.49999983  0.37191468
   0.50000017  0.49999983  0.43595734
   0.50000017  0.49999983  0.50000000
   0.50000017  0.49999983  0.56404266
   0.50000017  0.49999983  0.62808532
   0.50000017  0.49999983  0.69212797
   0.50000017  0.49999983  0.75617063
   0.00000010  0.99999990  0.30787201
   0.00000010  0.99999990  0.37191467
   0.00000010  0.99999990  0.43595732
   0.00000010  0.99999990  0.49999998
   0.00000010  0.99999990  0.56404264
   0.00000010  0.99999990  0.62808530
   0.00000010  0.99999990  0.69212795
   0.00000010  0.99999990  0.75617061
