  35  35   0   0
  0.1848959E+02  0.4457379E-09  0.6303685E-09  0.3257139E-08  0.5000000E-15
  1.000000000000000E-004
  CAR 
 unknown system                          
     13.85416459    -18.71807177  301      4.00141745      1.00000000
    -18.718  0.0000E+00  0.0000E+00
    -18.609  0.0000E+00  0.0000E+00
    -18.501  0.0000E+00  0.0000E+00
    -18.392  0.0000E+00  0.0000E+00
    -18.284  0.0000E+00  0.0000E+00
    -18.175  0.0000E+00  0.0000E+00
    -18.067  0.0000E+00  0.0000E+00
    -17.958  0.0000E+00  0.0000E+00
    -17.849  0.0000E+00  0.0000E+00
    -17.741  0.1121E-11  0.1217E-12
    -17.632  0.2466E-07  0.2678E-08
    -17.524  0.5655E-04  0.6143E-05
    -17.415  0.1497E-01  0.1632E-02
    -17.307  0.5699E+00  0.6351E-01
    -17.198  0.4382E+01  0.5393E+00
    -17.089  0.8771E+01  0.1492E+01
    -16.981  0.4290E+01  0.1957E+01
    -16.872  0.3881E+00  0.2000E+01
    -16.764  0.6935E-01  0.2007E+01
    -16.655  0.1560E+01  0.2176E+01
    -16.547  0.7206E+01  0.2959E+01
    -16.438  0.7862E+01  0.3812E+01
    -16.329  0.1676E+01  0.3994E+01
    -16.221  0.5142E-01  0.4000E+01
    -16.112  0.7313E-03  0.4000E+01
    -16.004  0.7910E-01  0.4009E+01
    -15.895  0.1653E+01  0.4188E+01
    -15.787  0.7174E+01  0.4967E+01
    -15.678  0.7684E+01  0.5801E+01
    -15.569  0.1760E+01  0.5993E+01
    -15.461  0.6829E-01  0.6000E+01
    -15.352  0.3661E-03  0.6000E+01
    -15.244  0.1860E-02  0.6000E+01
    -15.135  0.1759E+00  0.6019E+01
    -15.027  0.2600E+01  0.6302E+01
    -14.918  0.8336E+01  0.7207E+01
    -14.809  0.6313E+01  0.7892E+01
    -14.701  0.9696E+00  0.7997E+01
    -14.592  0.2433E-01  0.8000E+01
    -14.484  0.8147E-04  0.8000E+01
    -14.375  0.4918E-03  0.8000E+01
    -14.267  0.8035E-01  0.8009E+01
    -14.158  0.1823E+01  0.8207E+01
    -14.049  0.7856E+01  0.9060E+01
    -13.941  0.7355E+01  0.9858E+01
    -13.832  0.1274E+01  0.9997E+01
    -13.724  0.3159E-01  0.1000E+02
    -13.615  0.9295E-04  0.1000E+02
    -13.507  0.9164E-07  0.1000E+02
    -13.398  0.1244E-03  0.1000E+02
    -13.289  0.2917E-01  0.1000E+02
    -13.181  0.9920E+00  0.1011E+02
    -13.072  0.7690E+01  0.1095E+02
    -12.964  0.1784E+02  0.1288E+02
    -12.855  0.9434E+01  0.1391E+02
    -12.746  0.8429E+00  0.1400E+02
    -12.638  0.1030E-01  0.1400E+02
    -12.529  0.1384E-02  0.1400E+02
    -12.421  0.1571E+00  0.1402E+02
    -12.312  0.2886E+01  0.1433E+02
    -12.204  0.9405E+01  0.1535E+02
    -12.095  0.5456E+01  0.1594E+02
    -11.986  0.5093E+00  0.1600E+02
    -11.878  0.6461E-02  0.1600E+02
    -11.769  0.9612E-05  0.1600E+02
    -11.661  0.1530E-08  0.1600E+02
    -11.552  0.2454E-13  0.1600E+02
    -11.444  0.0000E+00  0.1600E+02
    -11.335  0.0000E+00  0.1600E+02
    -11.226  0.0000E+00  0.1600E+02
    -11.118  0.0000E+00  0.1600E+02
    -11.009  0.0000E+00  0.1600E+02
    -10.901  0.0000E+00  0.1600E+02
    -10.792  0.0000E+00  0.1600E+02
    -10.684  0.0000E+00  0.1600E+02
    -10.575  0.0000E+00  0.1600E+02
    -10.466  0.0000E+00  0.1600E+02
    -10.358  0.0000E+00  0.1600E+02
    -10.249  0.0000E+00  0.1600E+02
    -10.141  0.0000E+00  0.1600E+02
    -10.032  0.0000E+00  0.1600E+02
     -9.924  0.0000E+00  0.1600E+02
     -9.815  0.0000E+00  0.1600E+02
     -9.706  0.0000E+00  0.1600E+02
     -9.598  0.0000E+00  0.1600E+02
     -9.489  0.0000E+00  0.1600E+02
     -9.381  0.0000E+00  0.1600E+02
     -9.272  0.0000E+00  0.1600E+02
     -9.164  0.0000E+00  0.1600E+02
     -9.055  0.0000E+00  0.1600E+02
     -8.946  0.0000E+00  0.1600E+02
     -8.838  0.0000E+00  0.1600E+02
     -8.729  0.0000E+00  0.1600E+02
     -8.621  0.0000E+00  0.1600E+02
     -8.512  0.0000E+00  0.1600E+02
     -8.404  0.0000E+00  0.1600E+02
     -8.295  0.0000E+00  0.1600E+02
     -8.186  0.0000E+00  0.1600E+02
     -8.078  0.0000E+00  0.1600E+02
     -7.969  0.0000E+00  0.1600E+02
     -7.861  0.0000E+00  0.1600E+02
     -7.752  0.0000E+00  0.1600E+02
     -7.644  0.9214E-13  0.1600E+02
     -7.535  0.5048E-08  0.1600E+02
     -7.426  0.2774E-04  0.1600E+02
     -7.318  0.1579E-01  0.1600E+02
     -7.209  0.9923E+00  0.1611E+02
     -7.101  0.7717E+01  0.1695E+02
     -6.992  0.8388E+01  0.1786E+02
     -6.883  0.1283E+01  0.1800E+02
     -6.775  0.2458E-01  0.1800E+02
     -6.666  0.5247E-04  0.1800E+02
     -6.558  0.1166E-07  0.1800E+02
     -6.449  0.2609E-12  0.1800E+02
     -6.341  0.4211E-12  0.1800E+02
     -6.232  0.1397E-07  0.1800E+02
     -6.123  0.4755E-04  0.1800E+02
     -6.015  0.1733E-01  0.1800E+02
     -5.906  0.7372E+00  0.1808E+02
     -5.798  0.4540E+01  0.1857E+02
     -5.689  0.7277E+01  0.1936E+02
     -5.581  0.8191E+01  0.2025E+02
     -5.472  0.1231E+02  0.2159E+02
     -5.363  0.8857E+01  0.2255E+02
     -5.255  0.3520E+01  0.2294E+02
     -5.146  0.8222E+01  0.2383E+02
     -5.038  0.7890E+01  0.2468E+02
     -4.929  0.6921E+01  0.2544E+02
     -4.821  0.1046E+02  0.2657E+02
     -4.712  0.6121E+01  0.2724E+02
     -4.603  0.1052E+01  0.2735E+02
     -4.495  0.3167E+01  0.2769E+02
     -4.386  0.1008E+02  0.2879E+02
     -4.278  0.8499E+01  0.2971E+02
     -4.169  0.2511E+01  0.2998E+02
     -4.061  0.1429E+01  0.3014E+02
     -3.952  0.5696E+01  0.3076E+02
     -3.843  0.5054E+01  0.3131E+02
     -3.735  0.5569E+01  0.3191E+02
     -3.626  0.1493E+02  0.3353E+02
     -3.518  0.1629E+02  0.3530E+02
     -3.409  0.6553E+01  0.3601E+02
     -3.301  0.4239E+01  0.3647E+02
     -3.192  0.5675E+01  0.3709E+02
     -3.083  0.2578E+01  0.3737E+02
     -2.975  0.5228E+01  0.3794E+02
     -2.866  0.1017E+02  0.3904E+02
     -2.758  0.6287E+01  0.3972E+02
     -2.649  0.7151E+01  0.4050E+02
     -2.541  0.6209E+01  0.4117E+02
     -2.432  0.1687E+01  0.4136E+02
     -2.323  0.3148E+01  0.4170E+02
     -2.215  0.8763E+01  0.4265E+02
     -2.106  0.8072E+01  0.4353E+02
     -1.998  0.5377E+01  0.4411E+02
     -1.889  0.6225E+01  0.4479E+02
     -1.781  0.4859E+01  0.4531E+02
     -1.672  0.7767E+01  0.4616E+02
     -1.563  0.1401E+02  0.4768E+02
     -1.455  0.8165E+01  0.4856E+02
     -1.346  0.1240E+01  0.4870E+02
     -1.238  0.4480E+01  0.4919E+02
     -1.129  0.1239E+02  0.5053E+02
     -1.020  0.1034E+02  0.5165E+02
     -0.912  0.9998E+01  0.5274E+02
     -0.803  0.6551E+01  0.5345E+02
     -0.695  0.2979E+01  0.5377E+02
     -0.586  0.7596E+01  0.5460E+02
     -0.478  0.1016E+02  0.5570E+02
     -0.369  0.2678E+01  0.5599E+02
     -0.260  0.8106E+00  0.5608E+02
     -0.152  0.2567E+01  0.5636E+02
     -0.043  0.3078E+01  0.5669E+02
      0.065  0.4091E+01  0.5714E+02
      0.174  0.5997E+01  0.5779E+02
      0.282  0.3360E+01  0.5815E+02
      0.391  0.2424E+01  0.5842E+02
      0.500  0.3286E+01  0.5877E+02
      0.608  0.9790E+01  0.5984E+02
      0.717  0.1041E+02  0.6097E+02
      0.825  0.5948E+01  0.6161E+02
      0.934  0.2279E+01  0.6186E+02
      1.042  0.5921E+01  0.6250E+02
      1.151  0.9508E+01  0.6353E+02
      1.260  0.5626E+01  0.6415E+02
      1.368  0.8638E+01  0.6508E+02
      1.477  0.1269E+02  0.6646E+02
      1.585  0.1114E+02  0.6767E+02
      1.694  0.2876E+01  0.6798E+02
      1.802  0.2113E+00  0.6800E+02
      1.911  0.8939E+00  0.6810E+02
      2.020  0.2326E+01  0.6835E+02
      2.128  0.1952E+01  0.6857E+02
      2.237  0.5503E+01  0.6916E+02
      2.345  0.8327E+01  0.7007E+02
      2.454  0.4300E+01  0.7053E+02
      2.562  0.6142E+01  0.7120E+02
      2.671  0.7628E+01  0.7203E+02
      2.780  0.7559E+01  0.7285E+02
      2.888  0.1117E+02  0.7406E+02
      2.997  0.1283E+02  0.7546E+02
      3.105  0.1091E+02  0.7664E+02
      3.214  0.7856E+01  0.7749E+02
      3.322  0.1233E+02  0.7883E+02
      3.431  0.1599E+02  0.8057E+02
      3.540  0.1324E+02  0.8201E+02
      3.648  0.1557E+02  0.8370E+02
      3.757  0.3575E+02  0.8758E+02
      3.865  0.8563E+02  0.9687E+02
      3.974  0.1152E+03  0.1094E+03
      4.082  0.7569E+02  0.1176E+03
      4.191  0.3851E+02  0.1218E+03
      4.300  0.2339E+02  0.1243E+03
      4.408  0.2227E+02  0.1267E+03
      4.517  0.2795E+02  0.1298E+03
      4.625  0.2304E+02  0.1323E+03
      4.734  0.1095E+02  0.1335E+03
      4.843  0.8416E+01  0.1344E+03
      4.951  0.8790E+01  0.1353E+03
      5.060  0.5889E+01  0.1360E+03
      5.168  0.5169E+01  0.1365E+03
      5.277  0.1125E+02  0.1378E+03
      5.385  0.1410E+02  0.1393E+03
      5.494  0.6827E+01  0.1400E+03
      5.603  0.2184E+01  0.1403E+03
      5.711  0.2226E+01  0.1405E+03
      5.820  0.1379E+01  0.1407E+03
      5.928  0.1369E+00  0.1407E+03
      6.037  0.3523E+00  0.1407E+03
      6.145  0.1525E+01  0.1409E+03
      6.254  0.5114E+01  0.1414E+03
      6.363  0.1130E+02  0.1427E+03
      6.471  0.1255E+02  0.1440E+03
      6.580  0.1121E+02  0.1452E+03
      6.688  0.1134E+02  0.1465E+03
      6.797  0.1468E+02  0.1481E+03
      6.905  0.1255E+02  0.1494E+03
      7.014  0.1018E+02  0.1505E+03
      7.123  0.1274E+02  0.1519E+03
      7.231  0.1024E+02  0.1530E+03
      7.340  0.1021E+02  0.1541E+03
      7.448  0.1018E+02  0.1552E+03
      7.557  0.6594E+01  0.1560E+03
      7.665  0.6727E+01  0.1567E+03
      7.774  0.6292E+01  0.1574E+03
      7.883  0.3416E+01  0.1577E+03
      7.991  0.3852E+00  0.1578E+03
      8.100  0.5539E-02  0.1578E+03
      8.208  0.8767E-05  0.1578E+03
      8.317  0.1431E-08  0.1578E+03
      8.425  0.2363E-13  0.1578E+03
      8.534  0.0000E+00  0.1578E+03
      8.643  0.0000E+00  0.1578E+03
      8.751  0.0000E+00  0.1578E+03
      8.860  0.0000E+00  0.1578E+03
      8.968  0.0000E+00  0.1578E+03
      9.077  0.0000E+00  0.1578E+03
      9.185  0.0000E+00  0.1578E+03
      9.294  0.0000E+00  0.1578E+03
      9.403  0.0000E+00  0.1578E+03
      9.511  0.0000E+00  0.1578E+03
      9.620  0.0000E+00  0.1578E+03
      9.728  0.8862E-14  0.1578E+03
      9.837  0.5767E-09  0.1578E+03
      9.945  0.3714E-05  0.1578E+03
     10.054  0.2464E-02  0.1578E+03
     10.163  0.1792E+00  0.1578E+03
     10.271  0.1594E+01  0.1580E+03
     10.380  0.1967E+01  0.1582E+03
     10.488  0.3425E+00  0.1582E+03
     10.597  0.7514E-02  0.1582E+03
     10.706  0.1842E-04  0.1582E+03
     10.814  0.4701E-08  0.1582E+03
     10.923  0.1204E-12  0.1582E+03
     11.031  0.0000E+00  0.1582E+03
     11.140  0.0000E+00  0.1582E+03
     11.248  0.0000E+00  0.1582E+03
     11.357  0.3408E-14  0.1582E+03
     11.466  0.2670E-09  0.1582E+03
     11.574  0.2052E-05  0.1582E+03
     11.683  0.1618E-02  0.1582E+03
     11.791  0.1390E+00  0.1582E+03
     11.900  0.1447E+01  0.1584E+03
     12.008  0.2074E+01  0.1586E+03
     12.117  0.4268E+00  0.1587E+03
     12.226  0.4549E+00  0.1587E+03
     12.334  0.4333E+01  0.1592E+03
     12.443  0.6145E+01  0.1599E+03
     12.551  0.1314E+01  0.1600E+03
     12.660  0.3871E-01  0.1600E+03
     12.768  0.1399E-03  0.1600E+03
     12.877  0.5677E-07  0.1600E+03
     12.986  0.2438E-11  0.1600E+03
     13.094  0.0000E+00  0.1600E+03
     13.203  0.0000E+00  0.1600E+03
     13.311  0.0000E+00  0.1600E+03
     13.420  0.0000E+00  0.1600E+03
     13.528  0.0000E+00  0.1600E+03
     13.637  0.0000E+00  0.1600E+03
     13.746  0.0000E+00  0.1600E+03
     13.854  0.0000E+00  0.1600E+03
