   35   35    1    1
  0.1848959E+02  0.4457378E-09  0.6303685E-09  0.3257139E-08  0.5000000E-15
  1.000000000000000E-004
  CAR 
 unknown system                          
    112      4     80
 
  0.0000000E+00  0.0000000E+00  0.0000000E+00  0.1111111E+00
    1      -17.237516   1.000000
    2      -16.597947   1.000000
    3      -15.807843   1.000000
    4      -14.959981   1.000000
    5      -14.096529   1.000000
    6      -13.121733   1.000000
    7      -12.996543   1.000000
    8      -12.296664   1.000000
    9       -7.089614   1.000000
   10       -5.478036   1.000000
   11       -5.227359   1.000000
   12       -5.031185   1.000000
   13       -4.889991   1.000000
   14       -4.433789   1.000000
   15       -4.390285   1.000000
   16       -3.731218   1.000000
   17       -3.715607   1.000000
   18       -3.600380   1.000000
   19       -2.965601   1.000000
   20       -2.852798   1.000000
   21       -2.307890   1.000000
   22       -2.249881   1.000000
   23       -1.737654   1.000000
   24       -1.640379   1.000000
   25       -1.590536   1.000000
   26       -1.137932   1.000000
   27       -0.841426   1.000000
   28       -0.516257   1.000000
   29        0.100734   1.000000
   30        0.639696   1.000000
   31        0.987317   1.000000
   32        1.268891   1.000000
   33        1.476415   1.000000
   34        1.577564   1.000000
   35        2.222400   1.000000
   36        2.703632   1.000000
   37        2.916569   1.000000
   38        3.111848   1.000000
   39        3.287753   1.000000
   40        3.393823   1.000000
   41        3.447904   1.000000
   42        3.625561   1.000000
   43        3.710936   0.999980
   44        3.766284   0.999558
   45        3.809665   0.996654
   46        3.814034   0.995975
   47        3.821231   0.994586
   48        3.835338   0.990581
   49        3.867211   0.971150
   50        3.877249   0.960456
   51        3.877459   0.960202
   52        3.884930   0.950260
   53        3.914473   0.890572
   54        3.939842   0.808071
   55        3.946535   0.781172
   56        3.972633   0.658024
   57        3.977745   0.631106
   58        4.004166   0.484496
   59        4.013834   0.430307
   60        4.029259   0.346886
   61        4.066834   0.177450
   62        4.117053   0.050990
   63        4.173759   0.007399
   64        4.187375   0.004271
   65        4.385036   0.000000
   66        4.642198   0.000000
   67        4.653900   0.000000
   68        4.859114   0.000000
   69        4.991152   0.000000
   70        5.153489   0.000000
   71        5.471708   0.000000
   72        6.102709   0.000000
   73        6.359175   0.000000
   74        6.555520   0.000000
   75        6.672649   0.000000
   76        6.805407   0.000000
   77        6.976752   0.000000
   78        7.099318   0.000000
   79        7.388784   0.000000
   80        7.638129   0.000000
 
  0.3333333E+00  0.0000000E+00  0.0000000E+00  0.2222222E+00
    1      -17.151200   1.000000
    2      -16.514309   1.000000
    3      -15.728315   1.000000
    4      -14.884402   1.000000
    5      -14.021156   1.000000
    6      -13.036427   1.000000
    7      -12.973483   1.000000
    8      -12.249434   1.000000
    9       -7.094928   1.000000
   10       -5.802378   1.000000
   11       -5.469584   1.000000
   12       -5.211761   1.000000
   13       -5.098575   1.000000
   14       -4.869541   1.000000
   15       -4.359206   1.000000
   16       -4.291482   1.000000
   17       -3.594626   1.000000
   18       -3.556222   1.000000
   19       -3.497976   1.000000
   20       -2.874562   1.000000
   21       -2.702916   1.000000
   22       -2.200183   1.000000
   23       -1.821206   1.000000
   24       -1.557785   1.000000
   25       -1.164495   1.000000
   26       -0.949210   1.000000
   27       -0.908485   1.000000
   28       -0.565953   1.000000
   29       -0.050713   1.000000
   30        0.510315   1.000000
   31        0.624696   1.000000
   32        1.085356   1.000000
   33        1.308230   1.000000
   34        1.506978   1.000000
   35        2.184520   1.000000
   36        2.583397   1.000000
   37        2.671723   1.000000
   38        2.908631   1.000000
   39        2.998457   1.000000
   40        3.356429   1.000000
   41        3.478915   1.000000
   42        3.702574   0.999988
   43        3.749351   0.999818
   44        3.780901   0.999091
   45        3.794861   0.998256
   46        3.854394   0.981202
   47        3.860043   0.977214
   48        3.872012   0.966380
   49        3.889795   0.942784
   50        3.890845   0.941059
   51        3.903401   0.917151
   52        3.916910   0.883978
   53        3.935725   0.823563
   54        3.953402   0.751445
   55        3.974256   0.649554
   56        3.984310   0.595587
   57        4.019206   0.400690
   58        4.035394   0.315433
   59        4.083189   0.123752
   60        4.172038   0.007912
   61        4.220259   0.000984
   62        4.261689   0.000116
   63        4.381456   0.000000
   64        4.419796   0.000000
   65        4.515074   0.000000
   66        4.521410   0.000000
   67        4.574387   0.000000
   68        4.927172   0.000000
   69        5.215799   0.000000
   70        5.439487   0.000000
   71        6.434640   0.000000
   72        6.486024   0.000000
   73        6.762368   0.000000
   74        6.834127   0.000000
   75        6.921489   0.000000
   76        7.040908   0.000000
   77        7.263910   0.000000
   78        7.331724   0.000000
   79       10.282999   0.000000
   80       12.373608   0.000000
 
  0.0000000E+00  0.3333333E+00  0.0000000E+00  0.2222222E+00
    1      -17.185147   1.000000
    2      -16.600262   1.000000
    3      -15.853767   1.000000
    4      -15.008058   1.000000
    5      -14.111750   1.000000
    6      -13.090212   1.000000
    7      -13.005803   1.000000
    8      -12.250328   1.000000
    9       -7.097030   1.000000
   10       -5.819921   1.000000
   11       -5.477873   1.000000
   12       -4.934732   1.000000
   13       -4.897535   1.000000
   14       -4.390434   1.000000
   15       -4.002671   1.000000
   16       -3.714725   1.000000
   17       -3.614204   1.000000
   18       -3.338471   1.000000
   19       -2.964883   1.000000
   20       -2.705509   1.000000
   21       -2.308967   1.000000
   22       -2.046847   1.000000
   23       -1.664010   1.000000
   24       -1.662362   1.000000
   25       -1.555265   1.000000
   26       -1.172593   1.000000
   27       -0.675485   1.000000
   28       -0.547111   1.000000
   29       -0.195264   1.000000
   30        0.306646   1.000000
   31        0.631974   1.000000
   32        1.066832   1.000000
   33        1.289673   1.000000
   34        1.451346   1.000000
   35        1.963419   1.000000
   36        2.278013   1.000000
   37        2.783912   1.000000
   38        2.903087   1.000000
   39        3.038527   1.000000
   40        3.321566   1.000000
   41        3.603996   1.000000
   42        3.800853   0.997719
   43        3.802003   0.997600
   44        3.815198   0.995775
   45        3.827414   0.993068
   46        3.850613   0.983525
   47        3.859919   0.977309
   48        3.864194   0.973849
   49        3.874304   0.963885
   50        3.881611   0.954897
   51        3.888506   0.944846
   52        3.904584   0.914568
   53        3.916127   0.886128
   54        3.941319   0.802315
   55        3.957090   0.734633
   56        3.973512   0.653445
   57        4.025848   0.364857
   58        4.047919   0.255387
   59        4.134535   0.029879
   60        4.174259   0.007256
   61        4.361512   0.000000
   62        4.378728   0.000000
   63        4.458407   0.000000
   64        4.504017   0.000000
   65        4.585155   0.000000
   66        4.704795   0.000000
   67        4.902962   0.000000
   68        5.059801   0.000000
   69        5.279308   0.000000
   70        5.325928   0.000000
   71        5.687084   0.000000
   72        6.256083   0.000000
   73        6.283105   0.000000
   74        6.647086   0.000000
   75        6.728594   0.000000
   76        6.823287   0.000000
   77        7.008382   0.000000
   78        7.129187   0.000000
   79        7.453004   0.000000
   80       11.919964   0.000000
 
  0.3333333E+00  0.3333333E+00 -0.2220446E-15  0.4444444E+00
    1      -17.102329   1.000000
    2      -16.516859   1.000000
    3      -15.771648   1.000000
    4      -14.930185   1.000000
    5      -14.036418   1.000000
    6      -13.007075   1.000000
    7      -12.972650   1.000000
    8      -12.212629   1.000000
    9       -7.097540   1.000000
   10       -5.694116   1.000000
   11       -5.571951   1.000000
   12       -5.467870   1.000000
   13       -5.152986   1.000000
   14       -4.803043   1.000000
   15       -4.455818   1.000000
   16       -3.946701   1.000000
   17       -3.669899   1.000000
   18       -3.583115   1.000000
   19       -3.236128   1.000000
   20       -2.936669   1.000000
   21       -2.607966   1.000000
   22       -2.199439   1.000000
   23       -1.948897   1.000000
   24       -1.586548   1.000000
   25       -1.214335   1.000000
   26       -1.102325   1.000000
   27       -0.949797   1.000000
   28       -0.558072   1.000000
   29        0.118155   1.000000
   30        0.586066   1.000000
   31        0.762140   1.000000
   32        1.079408   1.000000
   33        1.406001   1.000000
   34        1.513445   1.000000
   35        2.313287   1.000000
   36        2.540200   1.000000
   37        2.828808   1.000000
   38        3.018274   1.000000
   39        3.203156   1.000000
   40        3.323079   1.000000
   41        3.414550   1.000000
   42        3.539444   1.000000
   43        3.665022   0.999999
   44        3.712671   0.999978
   45        3.749280   0.999819
   46        3.802417   0.997556
   47        3.854456   0.981162
   48        3.866859   0.971476
   49        3.875073   0.963014
   50        3.885500   0.949427
   51        3.899074   0.926102
   52        3.907578   0.907761
   53        3.917121   0.883394
   54        3.939439   0.809624
   55        3.956668   0.736587
   56        3.975950   0.640640
   57        3.989028   0.569545
   58        4.009546   0.454238
   59        4.037571   0.304572
   60        4.056366   0.218553
   61        4.114457   0.054953
   62        4.182006   0.005326
   63        4.244850   0.000288
   64        4.385077   0.000000
   65        4.448869   0.000000
   66        4.522676   0.000000
   67        4.581124   0.000000
   68        4.810253   0.000000
   69        5.274470   0.000000
   70        5.337426   0.000000
   71        6.321121   0.000000
   72        6.440539   0.000000
   73        6.590689   0.000000
   74        6.776175   0.000000
   75        7.067918   0.000000
   76        7.231709   0.000000
   77        7.407134   0.000000
   78        7.612178   0.000000
   79        7.764600   0.000000
   80       12.344791   0.000000
