 vasp.6.2.1 16May21 (build Dec 23 2021 00:35:04) complex                        
  
 executed on             LinuxIFC date 2023.03.08  11:54:34
 running on  128 total cores
 distrk:  each k-point on  128 cores,    1 groups
 distr:  one band on NCORE=  16 cores,    8 groups


--------------------------------------------------------------------------------------------------------


 INCAR:
   ENCUT = 400.000000
   KSPACING = 0.500000
   SIGMA = 0.100000
   EDIFF = 1.00e-08
   EDIFFG = -1.00e-02
   ALGO = Fast
   GGA = PE
   PREC = Normal
   IBRION = -1
   IDIPOL = 3
   ISIF = 3
   ISMEAR = 0
   ISPIN = 0
   LMAXMIX = 6
   NELM = 150
   NPAR = 8
   NSW = 0
   NWRITE = 1
   DIPOL = 0.2573 0.7427 0.5081
   KGAMMA = .TRUE.
   LASPH = .TRUE.
   LCHARG = .FALSE.
   LDIPOL = .TRUE.
   LWAVE = .FALSE.
   LREAL = AUTO

 POTCAR:    PAW_PBE Na 08Apr2002                  
 POTCAR:    PAW_PBE O 08Apr2002                   
 POTCAR:    PAW_PBE Cl 06Sep2000                  
 POTCAR:    PAW_PBE Na 08Apr2002                  
  local pseudopotential read in
  partial core-charges read in
  partial kinetic energy density read in
  atomic valenz-charges read in
  non local Contribution for L=           0  read in
    real space projection operators read in
  non local Contribution for L=           0  read in
    real space projection operators read in
  non local Contribution for L=           1  read in
    real space projection operators read in
    PAW grid and wavefunctions read in
 
   number of l-projection  operators is LMAX  =           3
   number of lm-projection operators is LMMAX =           5
 
 POTCAR:    PAW_PBE O 08Apr2002                   
  local pseudopotential read in
  partial core-charges read in
  partial kinetic energy density read in
  kinetic energy density of atom read in
  atomic valenz-charges read in
  non local Contribution for L=           0  read in
    real space projection operators read in
  non local Contribution for L=           0  read in
    real space projection operators read in
  non local Contribution for L=           1  read in
    real space projection operators read in
  non local Contribution for L=           1  read in
    real space projection operators read in
    PAW grid and wavefunctions read in
 
   number of l-projection  operators is LMAX  =           4
   number of lm-projection operators is LMMAX =           8
 
 POTCAR:    PAW_PBE Cl 06Sep2000                  
  local pseudopotential read in
  partial core-charges read in
  partial kinetic energy density read in
  atomic valenz-charges read in
  non local Contribution for L=           0  read in
    real space projection operators read in
  non local Contribution for L=           0  read in
    real space projection operators read in
  non local Contribution for L=           1  read in
    real space projection operators read in
  non local Contribution for L=           1  read in
    real space projection operators read in
    PAW grid and wavefunctions read in
 
   number of l-projection  operators is LMAX  =           4
   number of lm-projection operators is LMMAX =           8
 
 Optimization of the real space projectors (new method)

 maximal supplied QI-value         = 17.01
 optimisation between [QCUT,QGAM] = [ 10.20, 20.41] = [ 29.16,116.64] Ry 
 Optimized for a Real-space Cutoff    1.19 Angstroem

   l    n(q)    QCUT    max X(q) W(low)/X(q) W(high)/X(q)  e(spline) 
   0      7    10.205    45.123    0.22E-03    0.82E-03    0.11E-06
   0      7    10.205    12.364    0.17E-03    0.61E-03    0.75E-07
   1      7    10.205     8.302    0.37E-03    0.15E-03    0.27E-07
 Optimization of the real space projectors (new method)

 maximal supplied QI-value         = 24.76
 optimisation between [QCUT,QGAM] = [ 10.15, 20.30] = [ 28.85,115.39] Ry 
 Optimized for a Real-space Cutoff    1.38 Angstroem

   l    n(q)    QCUT    max X(q) W(low)/X(q) W(high)/X(q)  e(spline) 
   0      8    10.150    20.381    0.22E-03    0.32E-03    0.29E-06
   0      8    10.150    15.268    0.23E-03    0.35E-03    0.30E-06
   1      8    10.150     5.964    0.46E-03    0.53E-03    0.21E-06
   1      8    10.150     5.382    0.38E-03    0.45E-03    0.19E-06
 Optimization of the real space projectors (new method)

 maximal supplied QI-value         = 19.84
 optimisation between [QCUT,QGAM] = [ 10.12, 20.44] = [ 28.68,116.96] Ry 
 Optimized for a Real-space Cutoff    1.23 Angstroem

   l    n(q)    QCUT    max X(q) W(low)/X(q) W(high)/X(q)  e(spline) 
   0      7    10.119   168.010    0.54E-04    0.25E-03    0.48E-07
   0      7    10.119   164.674    0.53E-04    0.25E-03    0.47E-07
   1      7    10.119    69.222    0.45E-03    0.63E-03    0.13E-06
   1      7    10.119    56.786    0.45E-03    0.62E-03    0.13E-06
  PAW_PBE Na 08Apr2002                  :
 energy of atom  1       EATOM=   -5.1581
 kinetic energy error for atom=    0.0001 (will be added to EATOM!!)
  PAW_PBE O 08Apr2002                   :
 energy of atom  2       EATOM= -432.3788
 kinetic energy error for atom=    0.1156 (will be added to EATOM!!)
  PAW_PBE Cl 06Sep2000                  :
 energy of atom  3       EATOM= -409.7259
 kinetic energy error for atom=    0.0089 (will be added to EATOM!!)
 
 
 POSCAR: Na  O Cl
  positions in cartesian coordinates
  No initial velocities read in
 exchange correlation table for  LEXCH =        8
   RHO(1)=    0.500       N(1)  =     2000
   RHO(2)=  100.500       N(2)  =     4000
 


--------------------------------------------------------------------------------------------------------


 ion  position               nearest neighbor table
   1  0.500  0.500  0.261-   6 2.23   4 2.23  22 2.23   3 3.15  29 3.15   2 3.15  29 3.15   2 3.15
                             3 3.15   9 3.15
   2  0.000  0.500  0.329-   4 2.23  22 2.23  30 2.23   5 2.23   4 2.23  22 2.23   9 3.15  29 3.15
                             1 3.15   7 3.15   3 3.15   9 3.15  31 3.15  29 3.15   7 3.15   1 3.15
   3  0.500  1.000  0.261-   6 2.23   4 2.23  22 2.23   1 3.15  29 3.15   2 3.15  29 3.15   7 3.15
                             1 3.15   2 3.15   5 3.86   5 3.86
   4  0.500  0.500  0.329-  22 0.00   2 2.23   9 2.23   1 2.23   7 2.23  23 2.23   3 2.23   2 2.23
                            30 3.15   6 3.15   5 3.15  30 3.15   5 3.15   6 3.15  12 3.15
   5  0.000  0.500  0.397-   7 2.23  23 2.23  31 2.23   2 2.23   8 2.23  23 2.23   7 2.23  29 2.23
                            12 3.15  30 3.15   4 3.15  10 3.15   6 3.15  12 3.15  32 3.15  30 3.15
   6  0.500  1.000  0.329-   1 2.23  29 2.23   9 2.23   3 2.23   7 2.23  23 2.23  29 2.23   4 3.15
                            30 3.15   5 3.15  30 3.15  10 3.15   4 3.15   5 3.15   2 3.86   2 3.86
   7  0.500  0.500  0.397-  23 0.00   5 2.23  12 2.23   4 2.23  22 2.23  10 2.23  24 2.23   6 2.23
                             5 2.23  31 3.15   9 3.15   2 3.15   8 3.15  31 3.15  29 3.15   3 3.15
   8  0.000  0.500  0.466-  10 2.23  24 2.23  32 2.23   5 2.23  10 2.23  24 2.23  30 2.23  11 2.23
                            15 3.15  31 3.15   7 3.15   9 3.15  15 3.15  33 3.15  31 3.15  13 3.15
   9  0.500  1.000  0.397-   4 2.23  22 2.23  30 2.23   6 2.23  12 2.23  10 2.23  24 2.23  30 2.23
                             7 3.15   2 3.15  31 3.15   8 3.15   2 3.15  31 3.15   7 3.15   8 3.15
  10  0.500  0.500  0.466-  24 0.00   8 2.23  15 2.23  23 2.23   7 2.23   9 2.23   8 2.23  25 2.23
                            13 2.23  32 3.15  12 3.15   5 3.15  32 3.15  30 3.15  11 3.15   6 3.15
  11  0.000  0.500  0.534-  13 2.23  25 2.23  33 2.23  14 2.23  13 2.23  25 2.23  31 2.23   8 2.23
                            18 3.15  34 3.15  32 3.15  16 3.15  12 3.15  32 3.15  18 3.15  10 3.15
  12  0.500  1.000  0.466-   7 2.23  23 2.23  31 2.23   9 2.23  13 2.23  25 2.23  31 2.23  15 2.23
                            10 3.15   5 3.15  32 3.15  11 3.15   5 3.15  32 3.15  10 3.15  11 3.15
  13  0.500  0.500  0.534-  25 0.00  11 2.23  18 2.23  16 2.23  26 2.23  12 2.23  11 2.23  24 2.23
                            10 2.23  33 3.15  15 3.15  14 3.15  33 3.15  31 3.15   8 3.15  14 3.15
  14  0.000  0.500  0.603-  16 2.23  26 2.23  34 2.23  11 2.23  17 2.23  26 2.23  16 2.23  32 2.23
                            21 3.15  35 3.15  33 3.15  13 3.15  19 3.15  15 3.15  33 3.15  21 3.15
  15  0.500  1.000  0.534-  10 2.23  24 2.23  32 2.23  18 2.23  16 2.23  26 2.23  32 2.23  12 2.23
                            33 3.15  13 3.15   8 3.15  33 3.15  14 3.15   8 3.15  19 3.15  13 3.15
  16  0.500  0.500  0.603-  26 0.00  14 2.23  21 2.23  13 2.23  25 2.23  19 2.23  27 2.23  15 2.23
                            14 2.23  34 3.15  18 3.15  11 3.15  17 3.15  34 3.15  32 3.15  17 3.15
  17  0.000  0.500  0.671-  19 2.23  27 2.23  35 2.23  14 2.23  20 2.23  27 2.23  19 2.23  33 2.23
                            34 3.15  16 3.15  18 3.15  34 3.15  16 3.15  18 3.15  32 3.15  21 3.86
  18  0.500  1.000  0.603-  13 2.23  25 2.23  33 2.23  15 2.23  21 2.23  19 2.23  27 2.23  33 2.23
                            34 3.15  16 3.15  11 3.15  34 3.15  17 3.15  11 3.15  16 3.15  17 3.15
  19  0.500  0.500  0.671-  27 0.00  17 2.23  26 2.23  16 2.23  28 2.23  18 2.23  17 2.23  35 3.15
                            21 3.15  14 3.15  20 3.15  35 3.15  33 3.15  15 3.15  20 3.15  14 3.15
  20  0.000  0.500  0.739-  28 2.23  17 2.23  28 2.23  34 2.23  35 3.15  19 3.15  21 3.15  35 3.15
                            19 3.15  21 3.15  33 3.15  18 3.86  18 3.86
  21  0.500  1.000  0.671-  16 2.23  26 2.23  34 2.23  18 2.23  28 2.23  34 2.23  35 3.15  19 3.15
                            14 3.15  35 3.15  20 3.15  14 3.15  19 3.15  20 3.15  13 3.15  33 3.15
  22  0.500  0.500  0.329-   4 0.00   2 2.23   9 2.23   7 2.23   1 2.23   3 2.23   2 2.23
  23  0.500  0.500  0.397-   7 0.00   5 2.23  12 2.23  10 2.23   4 2.23   6 2.23   5 2.23
  24  0.500  0.500  0.466-  10 0.00   8 2.23  15 2.23   7 2.23   9 2.23   8 2.23  13 2.23
  25  0.500  0.500  0.534-  13 0.00  11 2.23  18 2.23  16 2.23  12 2.23  11 2.23  10 2.23
  26  0.500  0.500  0.603-  16 0.00  14 2.23  21 2.23  19 2.23  13 2.23  15 2.23  14 2.23
  27  0.500  0.500  0.671-  19 0.00  17 2.23  16 2.23  18 2.23  17 2.23
  28  0.500  0.500  0.739-  20 2.23  19 2.23  21 2.23  20 2.23
  29  0.000  1.000  0.329-   6 2.23  30 2.23   6 2.23   5 2.23   1 3.15   3 3.15   2 3.15   1 3.15
                             7 3.15   3 3.15   2 3.15   9 3.15   7 3.15   8 3.15   9 3.15
  30  0.000  1.000  0.397-   2 2.23   9 2.23  29 2.23  31 2.23   9 2.23   8 2.23   4 3.15   6 3.15
                             5 3.15   4 3.15  10 3.15   6 3.15   5 3.15  12 3.15  10 3.15  12 3.15
  31  0.000  1.000  0.466-   5 2.23  12 2.23  30 2.23  32 2.23  12 2.23  11 2.23   7 3.15   9 3.15
                             8 3.15   7 3.15  13 3.15   2 3.15   9 3.15   8 3.15  13 3.15  15 3.15
  32  0.000  1.000  0.534-   8 2.23  15 2.23  31 2.23  33 2.23  15 2.23  14 2.23  10 3.15  12 3.15
                            11 3.15  10 3.15  11 3.15  16 3.15   5 3.15  12 3.15  16 3.15  18 3.15
  33  0.000  1.000  0.603-  11 2.23  18 2.23  32 2.23  34 2.23  18 2.23  17 2.23  15 3.15  13 3.15
                            15 3.15  14 3.15  13 3.15  14 3.15  19 3.15   8 3.15  19 3.15  21 3.15
  34  0.000  1.000  0.671-  14 2.23  21 2.23  33 2.23  35 2.23  21 2.23  20 2.23  18 3.15  16 3.15
                            11 3.15  18 3.15  17 3.15  16 3.15  17 3.15
  35  0.000  1.000  0.739-  17 2.23  34 2.23  21 3.15  19 3.15  14 3.15  21 3.15  20 3.15  19 3.15
                            20 3.15
 
 -----------------------------------------------------------------------------
|                                                                             |
|           W    W    AA    RRRRR   N    N  II  N    N   GGGG   !!!           |
|           W    W   A  A   R    R  NN   N  II  NN   N  G    G  !!!           |
|           W    W  A    A  R    R  N N  N  II  N N  N  G       !!!           |
|           W WW W  AAAAAA  RRRRR   N  N N  II  N  N N  G  GGG   !            |
|           WW  WW  A    A  R   R   N   NN  II  N   NN  G    G                |
|           W    W  A    A  R    R  N    N  II  N    N   GGGG   !!!           |
|                                                                             |
|     The distance between some ions is very small. Please check the          |
|     nearest-neighbor list in the OUTCAR file.                               |
|     I HOPE YOU KNOW WHAT YOU ARE DOING!                                     |
|                                                                             |
 -----------------------------------------------------------------------------

  LATTYP: Found a simple monoclinic cell.
 ALAT       =     6.3036850495
 B/A-ratio  =     0.7071067812
 C/A-ratio  =     3.6700283144
 COS(beta)  =    -0.0943729321
  
  Lattice vectors:
  
 A1 = (   4.4573784450,  -4.4573784450,   0.0000000000)
 A2 = (   3.1518425248,   3.1518425248,   0.0000000000)
 A3 = (  -1.5438189658,   1.5438189658,  23.0314504788)


Analysis of symmetry for initial positions (statically):
=====================================================================
 Subroutine PRICEL returns:
 Original cell was already a primitive cell.
 

 Routine SETGRP: Setting up the symmetry group for a 
 simple monoclinic supercell.


 Subroutine GETGRP returns: Found  2 space group operations
 (whereof  2 operations were pure point group operations)
 out of a pool of  4 trial point group operations.


The static configuration has the point symmetry C_1h.


Analysis of symmetry for dynamics (positions and initial velocities):
=====================================================================
 Subroutine PRICEL returns:
 Original cell was already a primitive cell.
 

 Routine SETGRP: Setting up the symmetry group for a 
 simple monoclinic supercell.


 Subroutine GETGRP returns: Found  2 space group operations
 (whereof  2 operations were pure point group operations)
 out of a pool of  4 trial point group operations.


The dynamic configuration has the point symmetry C_1h.


 Subroutine INISYM returns: Found  2 space group operations
 (whereof  2 operations are pure point group operations),
 and found     1 'primitive' translations


----------------------------------------------------------------------------------------

                                     Primitive cell                                     

  volume of cell :     647.1356

  direct lattice vectors                    reciprocal lattice vectors
    -3.151842525 -3.151842525  0.000000000    -0.158637367 -0.158637367  0.000000000
     4.457378445 -4.457378445  0.000000000     0.112173558 -0.112173558 -0.158637367
    16.285694814-16.285694814 23.031450479     0.000000000  0.000000000  0.043418889

  length of vectors
     4.457378445  6.303685050 32.571389628     0.224347116  0.224347116  0.043418889

  position of ions in fractional coordinates (direct lattice)
     0.500000174  0.499999826  0.260513336
     0.000000100  0.499999826  0.328938097
     0.500000174  0.999999900  0.260513336
     0.500000174  0.499999826  0.328938097
     0.000000100  0.499999826  0.397362858
     0.500000174  0.999999900  0.328938097
     0.500000174  0.499999826  0.397362858
     0.000000100  0.499999826  0.465787619
     0.500000174  0.999999900  0.397362858
     0.500000174  0.499999826  0.465787619
     0.000000100  0.499999826  0.534212381
     0.500000174  0.999999900  0.465787619
     0.500000174  0.499999826  0.534212381
     0.000000100  0.499999826  0.602637142
     0.500000174  0.999999900  0.534212381
     0.500000174  0.499999826  0.602637142
     0.000000100  0.499999826  0.671061903
     0.500000174  0.999999900  0.602637142
     0.500000174  0.499999826  0.671061903
     0.000000100  0.499999826  0.739486664
     0.500000174  0.999999900  0.671061903
     0.500000174  0.499999826  0.328938097
     0.500000174  0.499999826  0.397362858
     0.500000174  0.499999826  0.465787619
     0.500000174  0.499999826  0.534212381
     0.500000174  0.499999826  0.602637142
     0.500000174  0.499999826  0.671061903
     0.500000174  0.499999826  0.739486664
     0.000000100  0.999999900  0.328938077
     0.000000100  0.999999900  0.397362838
     0.000000100  0.999999900  0.465787599
     0.000000100  0.999999900  0.534212360
     0.000000100  0.999999900  0.602637121
     0.000000100  0.999999900  0.671061882
     0.000000100  0.999999900  0.739486644

  ion indices of the primitive-cell ions
   primitive index   ion index
                 1           1
                 2           2
                 3           3
                 4           4
                 5           5
                 6           6
                 7           7
                 8           8
                 9           9
                10          10
                11          11
                12          12
                13          13
                14          14
                15          15
                16          16
                17          17
                18          18
                19          19
                20          20
                21          21
                22          22
                23          23
                24          24
                25          25
                26          26
                27          27
                28          28
                29          29
                30          30
                31          31
                32          32
                33          33
                34          34
                35          35

----------------------------------------------------------------------------------------

 
 -----------------------------------------------------------------------------
|                                                                             |
|           W    W    AA    RRRRR   N    N  II  N    N   GGGG   !!!           |
|           W    W   A  A   R    R  NN   N  II  NN   N  G    G  !!!           |
|           W    W  A    A  R    R  N N  N  II  N N  N  G       !!!           |
|           W WW W  AAAAAA  RRRRR   N  N N  II  N  N N  G  GGG   !            |
|           WW  WW  A    A  R   R   N   NN  II  N   NN  G    G                |
|           W    W  A    A  R    R  N    N  II  N    N   GGGG   !!!           |
|                                                                             |
|     The requested file  could not be found or opened for reading            |
|     k-point information. Automatic k-point generation is used as a          |
|     fallback, which may lead to unwanted results.                           |
|                                                                             |
 -----------------------------------------------------------------------------

 

Automatic generation of k-mesh.
 Grid dimensions derived from KSPACING:
 generate k-points for:    3    3    1

 Generating k-lattice:

  Cartesian coordinates                     Fractional coordinates (reciprocal lattice)
    -0.052879122 -0.052879122  0.000000000     0.333333333  0.000000000  0.000000000
     0.037391186 -0.037391186 -0.052879122     0.000000000  0.333333333 -0.000000000
     0.000000000  0.000000000  0.043418889     0.000000000  0.000000000  1.000000000

  Length of vectors
     0.074782372  0.074782372  0.043418889

  Shift w.r.t. Gamma in fractional coordinates (k-lattice)
     0.000000000  0.000000000  0.000000000

 
 Subroutine IBZKPT returns following result:
 ===========================================
 
 Found      4 irreducible k-points:
 
 Following reciprocal coordinates:
            Coordinates               Weight
  0.000000  0.000000  0.000000      1.000000
  0.333333  0.000000  0.000000      2.000000
  0.000000  0.333333  0.000000      2.000000
  0.333333  0.333333 -0.000000      4.000000
 
 Following cartesian coordinates:
            Coordinates               Weight
  0.000000  0.000000  0.000000      1.000000
 -0.052879 -0.052879  0.000000      2.000000
  0.037391 -0.037391 -0.052879      2.000000
 -0.015488 -0.090270 -0.052879      4.000000
 


--------------------------------------------------------------------------------------------------------




 Dimension of arrays:
   k-points           NKPTS =      4   k-points in BZ     NKDIM =      4   number of bands    NBANDS=     80
   number of dos      NEDOS =    301   number of ions     NIONS =     35
   non local maximal  LDIM  =      4   non local SUM 2l+1 LMDIM =      8
   total plane-waves  NPLWV = 122880
   max r-space proj   IRMAX =   2142   max aug-charges    IRDMAX=   9443
   dimension x,y,z NGX =    24 NGY =   32 NGZ =  160
   dimension x,y,z NGXF=    48 NGYF=   64 NGZF=  320
   support grid    NGXF=    48 NGYF=   64 NGZF=  320
   ions per type =              21   7   7
   NGX,Y,Z   is equivalent  to a cutoff of   8.95,  8.44,  8.17 a.u.
   NGXF,Y,Z  is equivalent  to a cutoff of  17.90, 16.88, 16.33 a.u.

 SYSTEM =  unknown system                          
 POSCAR =  Na  O Cl                                

 Startparameter for this run:
   NWRITE =      1    write-flag & timer
   PREC   = normal    normal or accurate (medium, high low for compatibility)
   ISTART =      0    job   : 0-new  1-cont  2-samecut
   ICHARG =      2    charge: 1-file 2-atom 10-const
   ISPIN  =      1    spin polarized calculation?
   LNONCOLLINEAR =      F non collinear calculations
   LSORBIT =      F    spin-orbit coupling
   INIWAV =      1    electr: 0-lowe 1-rand  2-diag
   LASPH  =      T    aspherical Exc in radial PAW
 Electronic Relaxation 1
   ENCUT  =  400.0 eV  29.40 Ry    5.42 a.u.   7.27 10.28 53.12*2*pi/ulx,y,z
   ENINI  =  400.0     initial cutoff
   ENAUG  =  605.4 eV  augmentation charge cutoff
   NELM   =    150;   NELMIN=  2; NELMDL= -5     # of ELM steps 
   EDIFF  = 0.1E-07   stopping-criterion for ELM
   LREAL  =      T    real-space projection
   NLSPLINE    = F    spline interpolate recip. space projectors
   LCOMPAT=      F    compatible to vasp.4.4
   GGA_COMPAT  = T    GGA compatible to vasp.4.4-vasp.4.6
   LMAXPAW     = -100 max onsite density
   LMAXMIX     =    6 max onsite mixed and CHGCAR
   VOSKOWN=      0    Vosko Wilk Nusair interpolation
   ROPT   =   -0.00050  -0.00050  -0.00050
 Ionic relaxation
   EDIFFG = -.1E-01   stopping-criterion for IOM
   NSW    =      0    number of steps for IOM
   NBLOCK =      1;   KBLOCK =      1    inner block; outer block 
   IBRION =     -1    ionic relax: 0-MD 1-quasi-New 2-CG
   NFREE  =      0    steps in history (QN), initial steepest desc. (CG)
   ISIF   =      3    stress and relaxation
   IWAVPR =     10    prediction:  0-non 1-charg 2-wave 3-comb
   ISYM   =      2    0-nonsym 1-usesym 2-fastsym
   LCORR  =      T    Harris-Foulkes like correction to forces

   POTIM  = 0.5000    time-step for ionic-motion
   TEIN   =    0.0    initial temperature
   TEBEG  =    0.0;   TEEND  =   0.0 temperature during run
   SMASS  =  -3.00    Nose mass-parameter (am)
   estimated Nose-frequenzy (Omega)   =  0.10E-29 period in steps = 0.13E+47 mass=  -0.454E-27a.u.
   SCALEE = 1.0000    scale energy and forces
   NPACO  =    256;   APACO  = 16.0  distance and # of slots for P.C.
   PSTRESS=    0.0 pullay stress

  Mass of Ions in am
   POMASS =  22.99 16.00 35.45
  Ionic Valenz
   ZVAL   =   1.00  6.00  7.00
  Atomic Wigner-Seitz radii
   RWIGS  =  -1.00 -1.00 -1.00
  virtual crystal weights 
   VCA    =   1.00  1.00  1.00
   NELECT =     112.0000    total number of electrons
   NUPDOWN=      -1.0000    fix difference up-down

 DOS related values:
   EMIN   =  10.00;   EMAX   =-10.00  energy-range for DOS
   EFERMI =   0.00
   ISMEAR =     0;   SIGMA  =   0.10  broadening in eV -4-tet -1-fermi 0-gaus

 Electronic relaxation 2 (details)
   IALGO  =     68    algorithm
   LDIAG  =      T    sub-space diagonalisation (order eigenvalues)
   LSUBROT=      F    optimize rotation matrix (better conditioning)
   TURBO    =      0    0=normal 1=particle mesh
   IRESTART =      0    0=no restart 2=restart with 2 vectors
   NREBOOT  =      0    no. of reboots
   NMIN     =      0    reboot dimension
   EREF     =   0.00    reference energy to select bands
   IMIX   =      4    mixing-type and parameters
     AMIX     =   0.40;   BMIX     =  1.00
     AMIX_MAG =   1.60;   BMIX_MAG =  1.00
     AMIN     =   0.10
     WC   =   100.;   INIMIX=   1;  MIXPRE=   1;  MAXMIX= -45

 Intra band minimization:
   WEIMIN = 0.0000     energy-eigenvalue tresh-hold
   EBREAK =  0.31E-10  absolut break condition
   DEPER  =   0.30     relativ break condition  

   TIME   =   0.40     timestep for ELM

  volume/ion in A,a.u.               =      18.49       124.77
  Fermi-wavevector in a.u.,A,eV,Ry     =   0.912324  1.724042 11.324605  0.832335
  Thomas-Fermi vector in A             =   2.036706
 
 Write flags
   LWAVE        =      F    write WAVECAR
   LDOWNSAMPLE  =      F    k-point downsampling of WAVECAR
   LCHARG       =      F    write CHGCAR
   LVTOT        =      F    write LOCPOT, total local potential
   LVHAR        =      F    write LOCPOT, Hartree potential only
   LELF         =      F    write electronic localiz. function (ELF)
   LORBIT       =      0    0 simple, 1 ext, 2 COOP (PROOUT), +10 PAW based schemes


 Dipole corrections
   LMONO  =      F    monopole corrections only (constant potential shift)
   LDIPOL =      T    correct potential (dipole corrections)
   IDIPOL =      3    1-x, 2-y, 3-z, 4-all directions 
   EPSILON=  1.0000000 bulk dielectric constant

 Exchange correlation treatment:
   GGA     =    PE    GGA type
   LEXCH   =     8    internal setting for exchange type
   VOSKOWN=      0    Vosko Wilk Nusair interpolation
   LHFCALC =     F    Hartree Fock is set to
   LHFONE  =     F    Hartree Fock one center treatment
   AEXX    =    0.0000 exact exchange contribution

 Linear response parameters
   LEPSILON=     F    determine dielectric tensor
   LRPA    =     F    only Hartree local field effects (RPA)
   LNABLA  =     F    use nabla operator in PAW spheres
   LVEL    =     F    velocity operator in full k-point grid
   LINTERFAST=   F  fast interpolation
   KINTER  =     0    interpolate to denser k-point grid
   CSHIFT  =0.1000    complex shift for real part using Kramers Kronig
   OMEGAMAX=  -1.0    maximum frequency
   DEG_THRESHOLD= 0.2000000E-02 threshold for treating states as degnerate
   RTIME   =   -0.100 relaxation time in fs
  (WPLASMAI=    0.000 imaginary part of plasma frequency in eV, 0.658/RTIME)
   DFIELD  = 0.0000000 0.0000000 0.0000000 field for delta impulse in time
 
 Orbital magnetization related:
   ORBITALMAG=     F  switch on orbital magnetization
   LCHIMAG   =     F  perturbation theory with respect to B field
   DQ        =  0.001000  dq finite difference perturbation B field
   LLRAUG    =     F  two centre corrections for induced B field



--------------------------------------------------------------------------------------------------------


 Static calculation
 charge density and potential will be updated during run
 non-spin polarized calculation
 RMM-DIIS sequential band-by-band and
  variant of blocked Davidson during initial phase
 perform sub-space diagonalisation
    before iterative eigenvector-optimisation
 modified Broyden-mixing scheme, WC =      100.0
 initial mixing is a Kerker type mixing with AMIX =  0.4000 and BMIX =      1.0000
 Hartree-type preconditioning will be used
 using additional bands           24
 real space projection scheme for non local part
 use partial core corrections
 calculate Harris-corrections to forces 
   (improved forces if not selfconsistent)
 use gradient corrections 
 use of overlap-Matrix (Vanderbilt PP)
 Gauss-broadening in eV      SIGMA  =   0.10


--------------------------------------------------------------------------------------------------------


  energy-cutoff  :      400.00
  volume of cell :      647.14
      direct lattice vectors                 reciprocal lattice vectors
    -3.151842525 -3.151842525  0.000000000    -0.158637367 -0.158637367  0.000000000
     4.457378445 -4.457378445  0.000000000     0.112173558 -0.112173558 -0.158637367
    16.285694814-16.285694814 23.031450479     0.000000000  0.000000000  0.043418889

  length of vectors
     4.457378445  6.303685050 32.571389628     0.224347116  0.224347116  0.043418889


 
 k-points in units of 2pi/SCALE and weight: read from INCAR                         
   0.00000000  0.00000000  0.00000000       0.111
  -0.05287912 -0.05287912  0.00000000       0.222
   0.03739119 -0.03739119 -0.05287912       0.222
  -0.01548794 -0.09027031 -0.05287912       0.444
 
 k-points in reciprocal lattice and weights: read from INCAR                         
   0.00000000  0.00000000  0.00000000       0.111
   0.33333333  0.00000000  0.00000000       0.222
   0.00000000  0.33333333  0.00000000       0.222
   0.33333333  0.33333333 -0.00000000       0.444
 
 position of ions in fractional coordinates (direct lattice) 
   0.50000017  0.49999983  0.26051334
   0.00000010  0.49999983  0.32893810
   0.50000017  0.99999990  0.26051334
   0.50000017  0.49999983  0.32893810
   0.00000010  0.49999983  0.39736286
   0.50000017  0.99999990  0.32893810
   0.50000017  0.49999983  0.39736286
   0.00000010  0.49999983  0.46578762
   0.50000017  0.99999990  0.39736286
   0.50000017  0.49999983  0.46578762
   0.00000010  0.49999983  0.53421238
   0.50000017  0.99999990  0.46578762
   0.50000017  0.49999983  0.53421238
   0.00000010  0.49999983  0.60263714
   0.50000017  0.99999990  0.53421238
   0.50000017  0.49999983  0.60263714
   0.00000010  0.49999983  0.67106190
   0.50000017  0.99999990  0.60263714
   0.50000017  0.49999983  0.67106190
   0.00000010  0.49999983  0.73948666
   0.50000017  0.99999990  0.67106190
   0.50000017  0.49999983  0.32893810
   0.50000017  0.49999983  0.39736286
   0.50000017  0.49999983  0.46578762
   0.50000017  0.49999983  0.53421238
   0.50000017  0.49999983  0.60263714
   0.50000017  0.49999983  0.67106190
   0.50000017  0.49999983  0.73948666
   0.00000010  0.99999990  0.32893808
   0.00000010  0.99999990  0.39736284
   0.00000010  0.99999990  0.46578760
   0.00000010  0.99999990  0.53421236
   0.00000010  0.99999990  0.60263712
   0.00000010  0.99999990  0.67106188
   0.00000010  0.99999990  0.73948664
 
 position of ions in cartesian coordinates  (Angst):
   4.89540732 -8.04725094  6.00000000
   7.58567359 -7.58567422  7.57592150
   7.12409687-10.27594050  6.00000000
   6.00975210 -9.16159572  7.57592150
   8.70001837 -8.70001900  9.15184299
   8.23844165-11.39028528  7.57592150
   7.12409687-10.27594050  9.15184299
   9.81436315 -9.81436378 10.72776449
   9.35278643-12.50463005  9.15184299
   8.23844165-11.39028528 10.72776449
  10.92870793-10.92870856 12.30368599
  10.46713121-13.61897483 10.72776449
   9.35278643-12.50463005 12.30368599
  12.04305270-12.04305333 13.87960748
  11.58147598-14.73331961 12.30368599
  10.46713121-13.61897483 13.87960748
  13.15739748-13.15739811 15.45552898
  12.69582076-15.84766438 13.87960748
  11.58147598-14.73331961 15.45552898
  14.27174226-14.27174289 17.03145048
  13.81016554-16.96200916 15.45552898
   6.00975210 -9.16159572  7.57592150
   7.12409687-10.27594050  9.15184299
   8.23844165-11.39028528 10.72776449
   9.35278643-12.50463005 12.30368599
  10.46713121-13.61897483 13.87960748
  11.58147598-14.73331961 15.45552898
  12.69582076-15.84766438 17.03145048
   9.81436282 -9.81436345  7.57592103
  10.92870759-10.92870822  9.15184252
  12.04305237-12.04305300 10.72776402
  13.15739715-13.15739778 12.30368552
  14.27174193-14.27174256 13.87960702
  15.38608670-15.38608733 15.45552851
  16.50043148-16.50043211 17.03145001
 


--------------------------------------------------------------------------------------------------------


 k-point   1 :   0.0000 0.0000 0.0000  plane waves:   11795
 k-point   2 :   0.3333 0.0000 0.0000  plane waves:   11732
 k-point   3 :   0.0000 0.3333 0.0000  plane waves:   11758
 k-point   4 :   0.3333 0.3333-0.0000  plane waves:   11750

 maximum and minimum number of plane-waves per node :       751      722

 maximum number of plane-waves:     11795
 maximum index in each direction: 
   IXMAX=    7   IYMAX=   10   IZMAX=   53
   IXMIN=   -7   IYMIN=  -10   IZMIN=  -53


 real space projection operators:
  total allocation   :       2577.90 KBytes
  max/ min on nodes  :        228.32        116.03


 parallel 3D FFT for wavefunctions:
    minimum data exchange during FFTs selected (reduces bandwidth)
 parallel 3D FFT for charge:
    minimum data exchange during FFTs selected (reduces bandwidth)


 total amount of memory used by VASP MPI-rank0    34698. kBytes
=======================================================================

   base      :      30000. kBytes
   nonlr-proj:       1527. kBytes
   fftplans  :        939. kBytes
   grid      :       1727. kBytes
   one-center:          9. kBytes
   wavefun   :        496. kBytes
 
     INWAV:  cpu time    0.0000: real time    0.0000
 Broyden mixing: mesh for mixing (old mesh)
   NGX = 15   NGY = 21   NGZ =107
  (NGX  = 48   NGY  = 64   NGZ  =320)
  gives a total of  33705 points

 initial charge density was supplied:
 charge density of overlapping atoms calculated
 number of electron     112.0000000 magnetization 
 keeping initial charge density in first step


--------------------------------------------------------------------------------------------------------


 Maximum index for non-local projection operator          163
 Maximum index for augmentation-charges          559 (set IRDMAX)


--------------------------------------------------------------------------------------------------------


 First call to EWALD:  gamma=   0.205
 Maximum number of real-space cells 5x 5x 1
 Maximum number of reciprocal cells 2x 2x 9

    FEWALD:  cpu time    0.0016: real time    0.0016


--------------------------------------- Iteration      1(   1)  ---------------------------------------


    POTLOK:  cpu time    0.0158: real time    0.0177
    SETDIJ:  cpu time    0.0433: real time    0.0440
     EDDAV:  cpu time    0.2763: real time    0.2855
       DOS:  cpu time    0.0015: real time    0.0016
    --------------------------------------------
      LOOP:  cpu time    0.3370: real time    0.3488

 eigenvalue-minimisations  :   768
 total energy-change (2. order) : 0.2568069E+03  (-0.4283647E+04)
 number of electron     112.0000000 magnetization 
 augmentation part      112.0000000 magnetization 

 DIPCOR: dipole corrections for dipol
 direction  3 min pos     3,
 dipolmoment           0.002787     -0.002787      0.003941 electrons x Angstroem
 Tr[quadrupol]      -705.902691

 energy correction for charged system         0.000000 eV
 dipol+quadrupol energy correction            0.000002 eV
 added-field ion interaction          0.000000 eV  (added to PSCEN)


 Free energy of the ion-electron system (eV)
  ---------------------------------------------------
  alpha Z        PSCENC =        -1.95977485
  Ewald energy   TEWEN  =     15905.22280977
  -Hartree energ DENC   =    -21558.07500834
  -exchange      EXHF   =         0.00000000
  -V(xc)+E(xc)   XCENC  =      -481.70553020
  PAW double counting   =      5540.17430720    -4765.88277892
  entropy T*S    EENTRO =        -0.02998019
  eigenvalues    EBANDS =      -383.11729676
  atomic energy  EATOM  =      6002.18016980
  Solvation  Ediel_sol  =         0.00000000
  ---------------------------------------------------
  free energy    TOTEN  =       256.80691750 eV

  energy without entropy =      256.83689769  energy(sigma->0) =      256.82190759


--------------------------------------------------------------------------------------------------------




--------------------------------------- Iteration      1(   2)  ---------------------------------------


     EDDAV:  cpu time    0.2581: real time    0.2605
       DOS:  cpu time    0.0005: real time    0.0005
    --------------------------------------------
      LOOP:  cpu time    0.2586: real time    0.2609

 eigenvalue-minimisations  :   744
 total energy-change (2. order) :-0.9324565E+03  (-0.8898992E+03)
 number of electron     112.0000000 magnetization 
 augmentation part      112.0000000 magnetization 

 DIPCOR: dipole corrections for dipol
 direction  3 min pos     3,
 dipolmoment           0.002787     -0.002787      0.003941 electrons x Angstroem
 Tr[quadrupol]      -705.902691

 energy correction for charged system         0.000000 eV
 dipol+quadrupol energy correction            0.000002 eV
 added-field ion interaction          0.000000 eV  (added to PSCEN)


 Free energy of the ion-electron system (eV)
  ---------------------------------------------------
  alpha Z        PSCENC =        -1.95977485
  Ewald energy   TEWEN  =     15905.22280977
  -Hartree energ DENC   =    -21558.07500834
  -exchange      EXHF   =         0.00000000
  -V(xc)+E(xc)   XCENC  =      -481.70553020
  PAW double counting   =      5540.17430720    -4765.88277892
  entropy T*S    EENTRO =        -0.02289988
  eigenvalues    EBANDS =     -1315.58089339
  atomic energy  EATOM  =      6002.18016980
  Solvation  Ediel_sol  =         0.00000000
  ---------------------------------------------------
  free energy    TOTEN  =      -675.64959882 eV

  energy without entropy =     -675.62669894  energy(sigma->0) =     -675.63814888


--------------------------------------------------------------------------------------------------------




--------------------------------------- Iteration      1(   3)  ---------------------------------------


     EDDAV:  cpu time    0.3194: real time    0.3204
       DOS:  cpu time    0.0005: real time    0.0005
    --------------------------------------------
      LOOP:  cpu time    0.3199: real time    0.3208

 eigenvalue-minimisations  :  1080
 total energy-change (2. order) :-0.2628457E+03  (-0.2510922E+03)
 number of electron     112.0000000 magnetization 
 augmentation part      112.0000000 magnetization 

 DIPCOR: dipole corrections for dipol
 direction  3 min pos     3,
 dipolmoment           0.002787     -0.002787      0.003941 electrons x Angstroem
 Tr[quadrupol]      -705.902691

 energy correction for charged system         0.000000 eV
 dipol+quadrupol energy correction            0.000002 eV
 added-field ion interaction          0.000000 eV  (added to PSCEN)


 Free energy of the ion-electron system (eV)
  ---------------------------------------------------
  alpha Z        PSCENC =        -1.95977485
  Ewald energy   TEWEN  =     15905.22280977
  -Hartree energ DENC   =    -21558.07500834
  -exchange      EXHF   =         0.00000000
  -V(xc)+E(xc)   XCENC  =      -481.70553020
  PAW double counting   =      5540.17430720    -4765.88277892
  entropy T*S    EENTRO =        -0.03000367
  eigenvalues    EBANDS =     -1578.41944975
  atomic energy  EATOM  =      6002.18016980
  Solvation  Ediel_sol  =         0.00000000
  ---------------------------------------------------
  free energy    TOTEN  =      -938.49525897 eV

  energy without entropy =     -938.46525529  energy(sigma->0) =     -938.48025713


--------------------------------------------------------------------------------------------------------




--------------------------------------- Iteration      1(   4)  ---------------------------------------


     EDDAV:  cpu time    0.2982: real time    0.3005
       DOS:  cpu time    0.0048: real time    0.0048
    --------------------------------------------
      LOOP:  cpu time    0.3030: real time    0.3052

 eigenvalue-minimisations  :   864
 total energy-change (2. order) :-0.1912474E+02  (-0.1877907E+02)
 number of electron     112.0000000 magnetization 
 augmentation part      112.0000000 magnetization 

 DIPCOR: dipole corrections for dipol
 direction  3 min pos     3,
 dipolmoment           0.002787     -0.002787      0.003941 electrons x Angstroem
 Tr[quadrupol]      -705.902691

 energy correction for charged system         0.000000 eV
 dipol+quadrupol energy correction            0.000002 eV
 added-field ion interaction          0.000000 eV  (added to PSCEN)


 Free energy of the ion-electron system (eV)
  ---------------------------------------------------
  alpha Z        PSCENC =        -1.95977485
  Ewald energy   TEWEN  =     15905.22280977
  -Hartree energ DENC   =    -21558.07500834
  -exchange      EXHF   =         0.00000000
  -V(xc)+E(xc)   XCENC  =      -481.70553020
  PAW double counting   =      5540.17430720    -4765.88277892
  entropy T*S    EENTRO =        -0.03088010
  eigenvalues    EBANDS =     -1597.54331172
  atomic energy  EATOM  =      6002.18016980
  Solvation  Ediel_sol  =         0.00000000
  ---------------------------------------------------
  free energy    TOTEN  =      -957.61999736 eV

  energy without entropy =     -957.58911727  energy(sigma->0) =     -957.60455731


--------------------------------------------------------------------------------------------------------




--------------------------------------- Iteration      1(   5)  ---------------------------------------


     EDDAV:  cpu time    0.3395: real time    0.4019
       DOS:  cpu time    0.0007: real time    0.0007
    CHARGE:  cpu time    0.0205: real time    0.0214
    MIXING:  cpu time    0.0052: real time    0.0060
    --------------------------------------------
      LOOP:  cpu time    0.3658: real time    0.4299

 eigenvalue-minimisations  :   848
 total energy-change (2. order) :-0.3724720E+00  (-0.3715641E+00)
 number of electron     111.9999876 magnetization 
 augmentation part       11.2810340 magnetization 

 DIPCOR: dipole corrections for dipol
 direction  3 min pos     3,
 dipolmoment           0.002787     -0.002787      0.003941 electrons x Angstroem
 Tr[quadrupol]      -705.902691

 energy correction for charged system         0.000000 eV
 dipol+quadrupol energy correction            0.000002 eV
 added-field ion interaction          0.000000 eV  (added to PSCEN)


 Broyden mixing:
  rms(total) = 0.65981E+02    rms(broyden)= 0.65981E+02
  rms(prec ) = 0.66074E+02
  weight for this iteration     100.00

 Free energy of the ion-electron system (eV)
  ---------------------------------------------------
  alpha Z        PSCENC =        -1.95977485
  Ewald energy   TEWEN  =     15905.22280977
  -Hartree energ DENC   =    -21558.07500834
  -exchange      EXHF   =         0.00000000
  -V(xc)+E(xc)   XCENC  =      -481.70553020
  PAW double counting   =      5540.17430720    -4765.88277892
  entropy T*S    EENTRO =        -0.03067817
  eigenvalues    EBANDS =     -1597.91598570
  atomic energy  EATOM  =      6002.18016980
  Solvation  Ediel_sol  =         0.00000000
  ---------------------------------------------------
  free energy    TOTEN  =      -957.99246941 eV

  energy without entropy =     -957.96179124  energy(sigma->0) =     -957.97713033


--------------------------------------------------------------------------------------------------------




--------------------------------------- Iteration      1(   6)  ---------------------------------------


    POTLOK:  cpu time    0.0134: real time    0.0134
    SETDIJ:  cpu time    0.0460: real time    0.0460
    EDDIAG:  cpu time    0.0574: real time    0.0591
  RMM-DIIS:  cpu time    0.0616: real time    0.0619
    ORTHCH:  cpu time    0.0137: real time    0.0137
       DOS:  cpu time    0.0003: real time    0.0003
    CHARGE:  cpu time    0.0139: real time    0.0139
    MIXING:  cpu time    0.0021: real time    0.0025
    --------------------------------------------
      LOOP:  cpu time    0.2084: real time    0.2107

 eigenvalue-minimisations  :   697
 total energy-change (2. order) : 0.4794196E+03  (-0.3214226E+02)
 number of electron     111.9999941 magnetization 
 augmentation part       -4.4131871 magnetization 

 DIPCOR: dipole corrections for dipol
 direction  3 min pos     3,
 dipolmoment           0.838867     -0.838867      1.186337 electrons x Angstroem
 Tr[quadrupol]      -723.101824

 energy correction for charged system         0.000000 eV
 dipol+quadrupol energy correction            0.196769 eV
 added-field ion interaction          0.000000 eV  (added to PSCEN)


 Broyden mixing:
  rms(total) = 0.28363E+02    rms(broyden)= 0.28362E+02
  rms(prec ) = 0.28914E+02
  weight for this iteration     100.00

 eigenvalues of (default mixing * dielectric matrix)
  average eigenvalue GAMMA=   0.7085
  0.7085

 Free energy of the ion-electron system (eV)
  ---------------------------------------------------
  alpha Z        PSCENC =        -1.76300786
  Ewald energy   TEWEN  =     15905.22280977
  -Hartree energ DENC   =    -22316.28563099
  -exchange      EXHF   =         0.00000000
  -V(xc)+E(xc)   XCENC  =      -450.20105746
  PAW double counting   =   3145255.35372245 -3144616.96371512
  entropy T*S    EENTRO =        -0.00000000
  eigenvalues    EBANDS =      -256.11611199
  atomic energy  EATOM  =      6002.18016980
  Solvation  Ediel_sol  =         0.00000000
  ---------------------------------------------------
  free energy    TOTEN  =      -478.57282139 eV

  energy without entropy =     -478.57282139  energy(sigma->0) =     -478.57282139


--------------------------------------------------------------------------------------------------------




--------------------------------------- Iteration      1(   7)  ---------------------------------------


    POTLOK:  cpu time    0.0122: real time    0.0122
    SETDIJ:  cpu time    0.0428: real time    0.0428
    EDDIAG:  cpu time    0.0554: real time    0.0568
  RMM-DIIS:  cpu time    0.0743: real time    0.0743
    ORTHCH:  cpu time    0.0098: real time    0.0098
       DOS:  cpu time    0.0009: real time    0.0009
    CHARGE:  cpu time    0.0141: real time    0.0141
    MIXING:  cpu time    0.0005: real time    0.0005
    --------------------------------------------
      LOOP:  cpu time    0.2099: real time    0.2113

 eigenvalue-minimisations  :   879
 total energy-change (2. order) :-0.1278033E+03  (-0.2917729E+02)
 number of electron     111.9999832 magnetization 
 augmentation part        8.2194057 magnetization 

 DIPCOR: dipole corrections for dipol
 direction  3 min pos     3,
 dipolmoment           0.404279     -0.404279      0.571737 electrons x Angstroem
 Tr[quadrupol]      -708.985545

 energy correction for charged system         0.000000 eV
 dipol+quadrupol energy correction            0.045702 eV
 added-field ion interaction          0.000000 eV  (added to PSCEN)


 Broyden mixing:
  rms(total) = 0.52998E+02    rms(broyden)= 0.52997E+02
  rms(prec ) = 0.53212E+02
  weight for this iteration     100.00

 eigenvalues of (default mixing * dielectric matrix)
  average eigenvalue GAMMA=   1.1060
  1.8458  0.3662

 Free energy of the ion-electron system (eV)
  ---------------------------------------------------
  alpha Z        PSCENC =        -1.91407526
  Ewald energy   TEWEN  =     15905.22280977
  -Hartree energ DENC   =    -21599.24038585
  -exchange      EXHF   =         0.00000000
  -V(xc)+E(xc)   XCENC  =      -474.12971323
  PAW double counting   =   1713389.41940694 -1712694.09440670
  entropy T*S    EENTRO =        -0.05268182
  eigenvalues    EBANDS =     -1133.76727878
  atomic energy  EATOM  =      6002.18016980
  Solvation  Ediel_sol  =         0.00000000
  ---------------------------------------------------
  free energy    TOTEN  =      -606.37615514 eV

  energy without entropy =     -606.32347332  energy(sigma->0) =     -606.34981423


--------------------------------------------------------------------------------------------------------




--------------------------------------- Iteration      1(   8)  ---------------------------------------


    POTLOK:  cpu time    0.0120: real time    0.0120
    SETDIJ:  cpu time    0.0430: real time    0.0430
    EDDIAG:  cpu time    0.0557: real time    0.0561
  RMM-DIIS:  cpu time    0.0771: real time    0.0771
    ORTHCH:  cpu time    0.0096: real time    0.0096
       DOS:  cpu time    0.0005: real time    0.0005
    CHARGE:  cpu time    0.0142: real time    0.0142
    MIXING:  cpu time    0.0005: real time    0.0005
    --------------------------------------------
      LOOP:  cpu time    0.2127: real time    0.2131

 eigenvalue-minimisations  :   873
 total energy-change (2. order) : 0.2048310E+03  (-0.2059614E+02)
 number of electron     111.9999763 magnetization 
 augmentation part       11.9897090 magnetization 

 DIPCOR: dipole corrections for dipol
 direction  3 min pos     3,
 dipolmoment          -1.663486      1.663486     -2.352524 electrons x Angstroem
 Tr[quadrupol]      -732.341226

 energy correction for charged system         0.000000 eV
 dipol+quadrupol energy correction            0.773765 eV
 added-field ion interaction          0.000000 eV  (added to PSCEN)


 Broyden mixing:
  rms(total) = 0.30336E+02    rms(broyden)= 0.30335E+02
  rms(prec ) = 0.30650E+02
  weight for this iteration     100.00

 eigenvalues of (default mixing * dielectric matrix)
  average eigenvalue GAMMA=   0.8112
  1.8624  0.2857  0.2857

 Free energy of the ion-electron system (eV)
  ---------------------------------------------------
  alpha Z        PSCENC =        -1.18601236
  Ewald energy   TEWEN  =     15905.22280977
  -Hartree energ DENC   =    -21790.06268135
  -exchange      EXHF   =         0.00000000
  -V(xc)+E(xc)   XCENC  =      -467.35990483
  PAW double counting   =   4675879.89585890 -4675267.84912497
  entropy T*S    EENTRO =        -0.09053082
  eigenvalues    EBANDS =      -662.29570750
  atomic energy  EATOM  =      6002.18016980
  Solvation  Ediel_sol  =         0.00000000
  ---------------------------------------------------
  free energy    TOTEN  =      -401.54512336 eV

  energy without entropy =     -401.45459254  energy(sigma->0) =     -401.49985795


--------------------------------------------------------------------------------------------------------




--------------------------------------- Iteration      1(   9)  ---------------------------------------


    POTLOK:  cpu time    0.0120: real time    0.0120
    SETDIJ:  cpu time    0.0430: real time    0.0430
    EDDIAG:  cpu time    0.0641: real time    0.0648
  RMM-DIIS:  cpu time    0.0661: real time    0.0661
    ORTHCH:  cpu time    0.0091: real time    0.0091
       DOS:  cpu time    0.0005: real time    0.0005
    CHARGE:  cpu time    0.0142: real time    0.0142
    MIXING:  cpu time    0.0005: real time    0.0005
    --------------------------------------------
      LOOP:  cpu time    0.2095: real time    0.2101

 eigenvalue-minimisations  :   787
 total energy-change (2. order) : 0.1136775E+03  (-0.1572070E+01)
 number of electron     111.9999695 magnetization 
 augmentation part       15.0014181 magnetization 

 DIPCOR: dipole corrections for dipol
 direction  3 min pos     3,
 dipolmoment          -0.548521      0.548521     -0.775725 electrons x Angstroem
 Tr[quadrupol]      -730.934484

 energy correction for charged system         0.000000 eV
 dipol+quadrupol energy correction            0.084131 eV
 added-field ion interaction          0.000000 eV  (added to PSCEN)


 Broyden mixing:
  rms(total) = 0.91885E+01    rms(broyden)= 0.91870E+01
  rms(prec ) = 0.95771E+01
  weight for this iteration     100.00

 eigenvalues of (default mixing * dielectric matrix)
  average eigenvalue GAMMA=   0.6400
  1.5745  0.3345  0.3254  0.3254

 Free energy of the ion-electron system (eV)
  ---------------------------------------------------
  alpha Z        PSCENC =        -1.87564589
  Ewald energy   TEWEN  =     15905.22280977
  -Hartree energ DENC   =    -21893.76087450
  -exchange      EXHF   =         0.00000000
  -V(xc)+E(xc)   XCENC  =      -461.56351855
  PAW double counting   =   5382525.36735868 -5381942.68812685
  entropy T*S    EENTRO =        -0.04499670
  eigenvalues    EBANDS =      -420.70476903
  atomic energy  EATOM  =      6002.18016980
  Solvation  Ediel_sol  =         0.00000000
  ---------------------------------------------------
  free energy    TOTEN  =      -287.86759327 eV

  energy without entropy =     -287.82259657  energy(sigma->0) =     -287.84509492


--------------------------------------------------------------------------------------------------------




--------------------------------------- Iteration      1(  10)  ---------------------------------------


    POTLOK:  cpu time    0.0123: real time    0.0123
    SETDIJ:  cpu time    0.0431: real time    0.0431
    EDDIAG:  cpu time    0.0558: real time    0.0564
  RMM-DIIS:  cpu time    0.0687: real time    0.0687
    ORTHCH:  cpu time    0.0093: real time    0.0093
       DOS:  cpu time    0.0005: real time    0.0005
    CHARGE:  cpu time    0.0146: real time    0.0146
    MIXING:  cpu time    0.0005: real time    0.0005
    --------------------------------------------
      LOOP:  cpu time    0.2046: real time    0.2053

 eigenvalue-minimisations  :   804
 total energy-change (2. order) : 0.4585584E+02  (-0.1286516E+01)
 number of electron     111.9999655 magnetization 
 augmentation part       16.3509154 magnetization 

 DIPCOR: dipole corrections for dipol
 direction  3 min pos     3,
 dipolmoment          -0.196147      0.196147     -0.277394 electrons x Angstroem
 Tr[quadrupol]      -727.179290

 energy correction for charged system         0.000000 eV
 dipol+quadrupol energy correction            0.010758 eV
 added-field ion interaction          0.000000 eV  (added to PSCEN)


 Broyden mixing:
  rms(total) = 0.18759E+02    rms(broyden)= 0.18759E+02
  rms(prec ) = 0.18823E+02
  weight for this iteration     100.00

 eigenvalues of (default mixing * dielectric matrix)
  average eigenvalue GAMMA=   0.5127
  1.0621  0.4332  0.4332  0.3476  0.2872

 Free energy of the ion-electron system (eV)
  ---------------------------------------------------
  alpha Z        PSCENC =        -1.94901894
  Ewald energy   TEWEN  =     15905.22280977
  -Hartree energ DENC   =    -21953.44380470
  -exchange      EXHF   =         0.00000000
  -V(xc)+E(xc)   XCENC  =      -458.31557781
  PAW double counting   =   4660218.62242151 -4659648.89601236
  entropy T*S    EENTRO =        -0.03669159
  eigenvalues    EBANDS =      -305.39605374
  atomic energy  EATOM  =      6002.18016980
  Solvation  Ediel_sol  =         0.00000000
  ---------------------------------------------------
  free energy    TOTEN  =      -242.01175806 eV

  energy without entropy =     -241.97506646  energy(sigma->0) =     -241.99341226


--------------------------------------------------------------------------------------------------------




--------------------------------------- Iteration      1(  11)  ---------------------------------------


    POTLOK:  cpu time    0.0120: real time    0.0120
    SETDIJ:  cpu time    0.0431: real time    0.0431
    EDDIAG:  cpu time    0.0547: real time    0.0559
  RMM-DIIS:  cpu time    0.0726: real time    0.0726
    ORTHCH:  cpu time    0.0094: real time    0.0093
       DOS:  cpu time    0.0007: real time    0.0007
    CHARGE:  cpu time    0.0143: real time    0.0143
    MIXING:  cpu time    0.0006: real time    0.0006
    --------------------------------------------
      LOOP:  cpu time    0.2072: real time    0.2085

 eigenvalue-minimisations  :   872
 total energy-change (2. order) : 0.1094315E+02  (-0.8068551E+00)
 number of electron     111.9999692 magnetization 
 augmentation part       14.4357422 magnetization 

 DIPCOR: dipole corrections for dipol
 direction  3 min pos     3,
 dipolmoment          -0.002535      0.002535     -0.003585 electrons x Angstroem
 Tr[quadrupol]      -724.775826

 energy correction for charged system         0.000000 eV
 dipol+quadrupol energy correction            0.000002 eV
 added-field ion interaction          0.000000 eV  (added to PSCEN)


 Broyden mixing:
  rms(total) = 0.20436E+02    rms(broyden)= 0.20435E+02
  rms(prec ) = 0.20449E+02
  weight for this iteration     100.00

 eigenvalues of (default mixing * dielectric matrix)
  average eigenvalue GAMMA=   0.4791
  0.9450  0.4790  0.4790  0.3312  0.3203  0.3203

 Free energy of the ion-electron system (eV)
  ---------------------------------------------------
  alpha Z        PSCENC =        -1.95977523
  Ewald energy   TEWEN  =     15905.22280977
  -Hartree energ DENC   =    -21984.85510363
  -exchange      EXHF   =         0.00000000
  -V(xc)+E(xc)   XCENC  =      -457.52869577
  PAW double counting   =   3459206.84992035 -3458641.78037993
  entropy T*S    EENTRO =        -0.06654529
  eigenvalues    EBANDS =      -259.13100849
  atomic energy  EATOM  =      6002.18016980
  Solvation  Ediel_sol  =         0.00000000
  ---------------------------------------------------
  free energy    TOTEN  =      -231.06860841 eV

  energy without entropy =     -231.00206312  energy(sigma->0) =     -231.03533576


--------------------------------------------------------------------------------------------------------




--------------------------------------- Iteration      1(  12)  ---------------------------------------


    POTLOK:  cpu time    0.0124: real time    0.0124
    SETDIJ:  cpu time    0.0432: real time    0.0432
    EDDIAG:  cpu time    0.0546: real time    0.0558
  RMM-DIIS:  cpu time    0.0878: real time    0.0948
    ORTHCH:  cpu time    0.0143: real time    0.0143
       DOS:  cpu time    0.0005: real time    0.0043
    CHARGE:  cpu time    0.0197: real time    0.0197
    MIXING:  cpu time    0.0009: real time    0.0009
    --------------------------------------------
      LOOP:  cpu time    0.2334: real time    0.2453

 eigenvalue-minimisations  :   860
 total energy-change (2. order) :-0.2773579E+01  (-0.1758956E+00)
 number of electron     111.9999682 magnetization 
 augmentation part       12.6021650 magnetization 

 DIPCOR: dipole corrections for dipol
 direction  3 min pos     3,
 dipolmoment          -0.056653      0.056653     -0.080119 electrons x Angstroem
 Tr[quadrupol]      -722.469078

 energy correction for charged system         0.000000 eV
 dipol+quadrupol energy correction            0.000897 eV
 added-field ion interaction          0.000000 eV  (added to PSCEN)


 Broyden mixing:
  rms(total) = 0.19011E+02    rms(broyden)= 0.19009E+02
  rms(prec ) = 0.19160E+02
  weight for this iteration     100.00

 eigenvalues of (default mixing * dielectric matrix)
  average eigenvalue GAMMA=   0.4741
  0.6807  0.6807  0.7447  0.4666  0.3489  0.3489  0.0484

 Free energy of the ion-electron system (eV)
  ---------------------------------------------------
  alpha Z        PSCENC =        -1.95887956
  Ewald energy   TEWEN  =     15905.22280977
  -Hartree energ DENC   =    -21965.82415640
  -exchange      EXHF   =         0.00000000
  -V(xc)+E(xc)   XCENC  =      -458.05453035
  PAW double counting   =   2977334.59471712 -2976775.54838586
  entropy T*S    EENTRO =        -0.07526558
  eigenvalues    EBANDS =      -274.37866632
  atomic energy  EATOM  =      6002.18016980
  Solvation  Ediel_sol  =         0.00000000
  ---------------------------------------------------
  free energy    TOTEN  =      -233.84218739 eV

  energy without entropy =     -233.76692181  energy(sigma->0) =     -233.80455460


--------------------------------------------------------------------------------------------------------




--------------------------------------- Iteration      1(  13)  ---------------------------------------


    POTLOK:  cpu time    0.0159: real time    0.0245
    SETDIJ:  cpu time    0.0503: real time    0.0503
    EDDIAG:  cpu time    0.0631: real time    0.0631
  RMM-DIIS:  cpu time    0.0655: real time    0.0724
    ORTHCH:  cpu time    0.0132: real time    0.0134
       DOS:  cpu time    0.0040: real time    0.0040
    CHARGE:  cpu time    0.0161: real time    0.0184
    MIXING:  cpu time    0.0006: real time    0.0006
    --------------------------------------------
      LOOP:  cpu time    0.2288: real time    0.2468

 eigenvalue-minimisations  :   825
 total energy-change (2. order) : 0.7655134E+00  (-0.1929356E+00)
 number of electron     111.9999689 magnetization 
 augmentation part       11.2971943 magnetization 

 DIPCOR: dipole corrections for dipol
 direction  3 min pos     3,
 dipolmoment           0.034430     -0.034430      0.048691 electrons x Angstroem
 Tr[quadrupol]      -720.763768

 energy correction for charged system         0.000000 eV
 dipol+quadrupol energy correction            0.000331 eV
 added-field ion interaction          0.000000 eV  (added to PSCEN)


 Broyden mixing:
  rms(total) = 0.16330E+02    rms(broyden)= 0.16326E+02
  rms(prec ) = 0.16541E+02
  weight for this iteration     100.00

 eigenvalues of (default mixing * dielectric matrix)
  average eigenvalue GAMMA=   0.4474
  0.7660  0.7660  0.6249  0.6249  0.3380  0.3380  0.0803  0.0410

 Free energy of the ion-electron system (eV)
  ---------------------------------------------------
  alpha Z        PSCENC =        -1.95944556
  Ewald energy   TEWEN  =     15905.22280977
  -Hartree energ DENC   =    -21947.88638461
  -exchange      EXHF   =         0.00000000
  -V(xc)+E(xc)   XCENC  =      -458.95745846
  PAW double counting   =   2194683.77933041 -2194136.54306068
  entropy T*S    EENTRO =        -0.17074389
  eigenvalues    EBANDS =      -278.74189078
  atomic energy  EATOM  =      6002.18016980
  Solvation  Ediel_sol  =         0.00000000
  ---------------------------------------------------
  free energy    TOTEN  =      -233.07667400 eV

  energy without entropy =     -232.90593011  energy(sigma->0) =     -232.99130206


--------------------------------------------------------------------------------------------------------




--------------------------------------- Iteration      1(  14)  ---------------------------------------


    POTLOK:  cpu time    0.0125: real time    0.0198
    SETDIJ:  cpu time    0.0429: real time    0.0429
    EDDIAG:  cpu time    0.2249: real time    0.3316
  RMM-DIIS:  cpu time    0.0719: real time    0.0729
    ORTHCH:  cpu time    0.0103: real time    0.0103
       DOS:  cpu time    0.0005: real time    0.0005
    CHARGE:  cpu time    0.0146: real time    0.0146
    MIXING:  cpu time    0.0007: real time    0.0007
    --------------------------------------------
      LOOP:  cpu time    0.3783: real time    0.4932

 eigenvalue-minimisations  :   863
 total energy-change (2. order) :-0.1863195E+01  (-0.1772710E+00)
 number of electron     111.9999789 magnetization 
 augmentation part        8.9843772 magnetization 

 DIPCOR: dipole corrections for dipol
 direction  3 min pos     3,
 dipolmoment          -0.064411      0.064411     -0.091091 electrons x Angstroem
 Tr[quadrupol]      -720.593332

 energy correction for charged system         0.000000 eV
 dipol+quadrupol energy correction            0.001160 eV
 added-field ion interaction          0.000000 eV  (added to PSCEN)


 Broyden mixing:
  rms(total) = 0.14646E+02    rms(broyden)= 0.14636E+02
  rms(prec ) = 0.14935E+02
  weight for this iteration     100.00

 eigenvalues of (default mixing * dielectric matrix)
  average eigenvalue GAMMA=   0.4610
  0.8953  0.8953  0.6761  0.6761  0.3354  0.3354  0.2587  0.0382  0.0382

 Free energy of the ion-electron system (eV)
  ---------------------------------------------------
  alpha Z        PSCENC =        -1.95861694
  Ewald energy   TEWEN  =     15905.22280977
  -Hartree energ DENC   =    -21940.02912578
  -exchange      EXHF   =         0.00000000
  -V(xc)+E(xc)   XCENC  =      -459.30357649
  PAW double counting   =   1852993.96387912 -1852453.88780589
  entropy T*S    EENTRO =        -0.15509794
  eigenvalues    EBANDS =      -280.97250441
  atomic energy  EATOM  =      6002.18016980
  Solvation  Ediel_sol  =         0.00000000
  ---------------------------------------------------
  free energy    TOTEN  =      -234.93986875 eV

  energy without entropy =     -234.78477081  energy(sigma->0) =     -234.86231978


--------------------------------------------------------------------------------------------------------




--------------------------------------- Iteration      1(  15)  ---------------------------------------


    POTLOK:  cpu time    0.0123: real time    0.0123
    SETDIJ:  cpu time    0.0426: real time    0.0426
    EDDIAG:  cpu time    0.0562: real time    0.0571
  RMM-DIIS:  cpu time    0.0767: real time    0.0767
    ORTHCH:  cpu time    0.0098: real time    0.0098
       DOS:  cpu time    0.0004: real time    0.0004
    CHARGE:  cpu time    0.0141: real time    0.0141
    MIXING:  cpu time    0.0007: real time    0.0007
    --------------------------------------------
      LOOP:  cpu time    0.2129: real time    0.2138

 eigenvalue-minimisations  :   910
 total energy-change (2. order) :-0.8934325E+01  (-0.1982562E+00)
 number of electron     111.9999735 magnetization 
 augmentation part       10.8708175 magnetization 

 DIPCOR: dipole corrections for dipol
 direction  3 min pos     3,
 dipolmoment           0.073616     -0.073616      0.104109 electrons x Angstroem
 Tr[quadrupol]      -721.356326

 energy correction for charged system         0.000000 eV
 dipol+quadrupol energy correction            0.001515 eV
 added-field ion interaction          0.000000 eV  (added to PSCEN)


 Broyden mixing:
  rms(total) = 0.12686E+02    rms(broyden)= 0.12678E+02
  rms(prec ) = 0.13053E+02
  weight for this iteration     100.00

 eigenvalues of (default mixing * dielectric matrix)
  average eigenvalue GAMMA=   0.5276
  1.3426  1.3426  0.7112  0.7112  0.3762  0.3762  0.2862  0.0448  0.0448  0.0402

 Free energy of the ion-electron system (eV)
  ---------------------------------------------------
  alpha Z        PSCENC =        -1.95826166
  Ewald energy   TEWEN  =     15905.22280977
  -Hartree energ DENC   =    -21932.95613704
  -exchange      EXHF   =         0.00000000
  -V(xc)+E(xc)   XCENC  =      -459.77484490
  PAW double counting   =   1487016.87391023 -1486485.54426466
  entropy T*S    EENTRO =        -0.12645650
  eigenvalues    EBANDS =      -287.79111839
  atomic energy  EATOM  =      6002.18016980
  Solvation  Ediel_sol  =         0.00000000
  ---------------------------------------------------
  free energy    TOTEN  =      -243.87419335 eV

  energy without entropy =     -243.74773685  energy(sigma->0) =     -243.81096510


--------------------------------------------------------------------------------------------------------




--------------------------------------- Iteration      1(  16)  ---------------------------------------


    POTLOK:  cpu time    0.0121: real time    0.0121
    SETDIJ:  cpu time    0.0429: real time    0.0429
    EDDIAG:  cpu time    0.0559: real time    0.0566
  RMM-DIIS:  cpu time    0.0935: real time    0.0935
    ORTHCH:  cpu time    0.0102: real time    0.0102
       DOS:  cpu time    0.0005: real time    0.0005
    CHARGE:  cpu time    0.0144: real time    0.0144
    MIXING:  cpu time    0.0008: real time    0.0008
    --------------------------------------------
      LOOP:  cpu time    0.2303: real time    0.2310

 eigenvalue-minimisations  :  1093
 total energy-change (2. order) : 0.2427930E+01  (-0.7501604E+00)
 number of electron     111.9999668 magnetization 
 augmentation part       13.3211237 magnetization 

 DIPCOR: dipole corrections for dipol
 direction  3 min pos     3,
 dipolmoment           0.142055     -0.142055      0.200896 electrons x Angstroem
 Tr[quadrupol]      -721.080462

 energy correction for charged system         0.000000 eV
 dipol+quadrupol energy correction            0.005643 eV
 added-field ion interaction          0.000000 eV  (added to PSCEN)


 Broyden mixing:
  rms(total) = 0.70708E+01    rms(broyden)= 0.70556E+01
  rms(prec ) = 0.74840E+01
  weight for this iteration     100.00

 eigenvalues of (default mixing * dielectric matrix)
  average eigenvalue GAMMA=   0.4941
  1.4141  1.4141  0.6990  0.6990  0.3798  0.3798  0.2871  0.0486  0.0486  0.0337
  0.0309

 Free energy of the ion-electron system (eV)
  ---------------------------------------------------
  alpha Z        PSCENC =        -1.95413437
  Ewald energy   TEWEN  =     15905.22280977
  -Hartree energ DENC   =    -21893.78881271
  -exchange      EXHF   =         0.00000000
  -V(xc)+E(xc)   XCENC  =      -461.25236526
  PAW double counting   =    502563.30080455  -502057.29108187
  entropy T*S    EENTRO =        -0.08788163
  eigenvalues    EBANDS =      -297.77577186
  atomic energy  EATOM  =      6002.18016980
  Solvation  Ediel_sol  =         0.00000000
  ---------------------------------------------------
  free energy    TOTEN  =      -241.44626358 eV

  energy without entropy =     -241.35838195  energy(sigma->0) =     -241.40232277


--------------------------------------------------------------------------------------------------------




--------------------------------------- Iteration      1(  17)  ---------------------------------------


    POTLOK:  cpu time    0.0195: real time    0.0195
    SETDIJ:  cpu time    0.0433: real time    0.0433
    EDDIAG:  cpu time    0.0573: real time    0.0575
  RMM-DIIS:  cpu time    0.0697: real time    0.0697
    ORTHCH:  cpu time    0.0097: real time    0.0097
       DOS:  cpu time    0.0004: real time    0.0004
    CHARGE:  cpu time    0.0142: real time    0.0142
    MIXING:  cpu time    0.0008: real time    0.0008
    --------------------------------------------
      LOOP:  cpu time    0.2148: real time    0.2150

 eigenvalue-minimisations  :   847
 total energy-change (2. order) : 0.1947717E+01  (-0.3083341E-01)
 number of electron     111.9999654 magnetization 
 augmentation part       14.9429511 magnetization 

 DIPCOR: dipole corrections for dipol
 direction  3 min pos     3,
 dipolmoment           0.163069     -0.163069      0.230614 electrons x Angstroem
 Tr[quadrupol]      -721.093267

 energy correction for charged system         0.000000 eV
 dipol+quadrupol energy correction            0.007436 eV
 added-field ion interaction          0.000000 eV  (added to PSCEN)


 Broyden mixing:
  rms(total) = 0.52714E+01    rms(broyden)= 0.52639E+01
  rms(prec ) = 0.54598E+01
  weight for this iteration     100.00

 eigenvalues of (default mixing * dielectric matrix)
  average eigenvalue GAMMA=   0.4444
  1.2867  1.2867  0.7401  0.7401  0.3758  0.3758  0.2859  0.0835  0.0500  0.0412
  0.0412  0.0260

 Free energy of the ion-electron system (eV)
  ---------------------------------------------------
  alpha Z        PSCENC =        -1.95234149
  Ewald energy   TEWEN  =     15905.22280977
  -Hartree energ DENC   =    -21891.35489482
  -exchange      EXHF   =         0.00000000
  -V(xc)+E(xc)   XCENC  =      -461.31736716
  PAW double counting   =    426051.63395306  -425547.81043919
  entropy T*S    EENTRO =        -0.15380899
  eigenvalues    EBANDS =      -295.94662793
  atomic energy  EATOM  =      6002.18016980
  Solvation  Ediel_sol  =         0.00000000
  ---------------------------------------------------
  free energy    TOTEN  =      -239.49854694 eV

  energy without entropy =     -239.34473796  energy(sigma->0) =     -239.42164245


--------------------------------------------------------------------------------------------------------




--------------------------------------- Iteration      1(  18)  ---------------------------------------


    POTLOK:  cpu time    0.0120: real time    0.0120
    SETDIJ:  cpu time    0.0432: real time    0.0432
    EDDIAG:  cpu time    0.0554: real time    0.0558
  RMM-DIIS:  cpu time    0.0712: real time    0.0712
    ORTHCH:  cpu time    0.0095: real time    0.0095
       DOS:  cpu time    0.0005: real time    0.0005
    CHARGE:  cpu time    0.0142: real time    0.0142
    MIXING:  cpu time    0.0008: real time    0.0008
    --------------------------------------------
      LOOP:  cpu time    0.2067: real time    0.2072

 eigenvalue-minimisations  :   858
 total energy-change (2. order) :-0.2600741E+01  (-0.2556398E-01)
 number of electron     111.9999688 magnetization 
 augmentation part       13.3841594 magnetization 

 DIPCOR: dipole corrections for dipol
 direction  3 min pos     3,
 dipolmoment           0.148190     -0.148190      0.209573 electrons x Angstroem
 Tr[quadrupol]      -721.592423

 energy correction for charged system         0.000000 eV
 dipol+quadrupol energy correction            0.006141 eV
 added-field ion interaction          0.000000 eV  (added to PSCEN)


 Broyden mixing:
  rms(total) = 0.72997E+01    rms(broyden)= 0.72973E+01
  rms(prec ) = 0.76741E+01
  weight for this iteration     100.00

 eigenvalues of (default mixing * dielectric matrix)
  average eigenvalue GAMMA=   0.4769
  1.3155  1.1205  1.1205  0.6923  0.6923  0.3660  0.3660  0.2808  0.0950  0.0516
  0.0390  0.0390  0.0215

 Free energy of the ion-electron system (eV)
  ---------------------------------------------------
  alpha Z        PSCENC =        -1.95363642
  Ewald energy   TEWEN  =     15905.22280977
  -Hartree energ DENC   =    -21896.19387331
  -exchange      EXHF   =         0.00000000
  -V(xc)+E(xc)   XCENC  =      -461.20636976
  PAW double counting   =    572979.58657255  -572471.94794048
  entropy T*S    EENTRO =        -0.08131140
  eigenvalues    EBANDS =      -297.70570896
  atomic energy  EATOM  =      6002.18016980
  Solvation  Ediel_sol  =         0.00000000
  ---------------------------------------------------
  free energy    TOTEN  =      -242.09928822 eV

  energy without entropy =     -242.01797682  energy(sigma->0) =     -242.05863252


--------------------------------------------------------------------------------------------------------




--------------------------------------- Iteration      1(  19)  ---------------------------------------


    POTLOK:  cpu time    0.0118: real time    0.0118
    SETDIJ:  cpu time    0.0433: real time    0.0433
    EDDIAG:  cpu time    0.0552: real time    0.0559
  RMM-DIIS:  cpu time    0.1012: real time    0.1012
    ORTHCH:  cpu time    0.0092: real time    0.0092
       DOS:  cpu time    0.0004: real time    0.0004
    CHARGE:  cpu time    0.0145: real time    0.0145
    MIXING:  cpu time    0.0008: real time    0.0008
    --------------------------------------------
      LOOP:  cpu time    0.2364: real time    0.2371

 eigenvalue-minimisations  :  1223
 total energy-change (2. order) :-0.1379681E+02  (-0.1472271E+01)
 number of electron     111.9999629 magnetization 
 augmentation part       16.5923555 magnetization 

 DIPCOR: dipole corrections for dipol
 direction  3 min pos     3,
 dipolmoment          -0.187883      0.187883     -0.265707 electrons x Angstroem
 Tr[quadrupol]      -725.370550

 energy correction for charged system         0.000000 eV
 dipol+quadrupol energy correction            0.009871 eV
 added-field ion interaction          0.000000 eV  (added to PSCEN)


 Broyden mixing:
  rms(total) = 0.11513E+02    rms(broyden)= 0.11510E+02
  rms(prec ) = 0.11673E+02
  weight for this iteration     100.00

 eigenvalues of (default mixing * dielectric matrix)
  average eigenvalue GAMMA=   0.4764
  1.6554  0.8850  0.8850  0.9156  0.5319  0.5319  0.3644  0.3644  0.2822  0.1032
  0.0509  0.0391  0.0391  0.0216

 Free energy of the ion-electron system (eV)
  ---------------------------------------------------
  alpha Z        PSCENC =        -1.94990637
  Ewald energy   TEWEN  =     15905.22280977
  -Hartree energ DENC   =    -21895.84362285
  -exchange      EXHF   =         0.00000000
  -V(xc)+E(xc)   XCENC  =      -461.25897073
  PAW double counting   =   2878768.17655552 -2878218.01674346
  entropy T*S    EENTRO =        -0.03580902
  eigenvalues    EBANDS =      -354.37058386
  atomic energy  EATOM  =      6002.18016980
  Solvation  Ediel_sol  =         0.00000000
  ---------------------------------------------------
  free energy    TOTEN  =      -255.89610118 eV

  energy without entropy =     -255.86029216  energy(sigma->0) =     -255.87819667


--------------------------------------------------------------------------------------------------------




--------------------------------------- Iteration      1(  20)  ---------------------------------------


    POTLOK:  cpu time    0.0121: real time    0.0120
    SETDIJ:  cpu time    0.0445: real time    0.0445
    EDDIAG:  cpu time    0.0557: real time    0.0563
  RMM-DIIS:  cpu time    0.0940: real time    0.0940
    ORTHCH:  cpu time    0.0095: real time    0.0095
       DOS:  cpu time    0.0004: real time    0.0004
    CHARGE:  cpu time    0.0145: real time    0.0145
    MIXING:  cpu time    0.0009: real time    0.0009
    --------------------------------------------
      LOOP:  cpu time    0.2314: real time    0.2321

 eigenvalue-minimisations  :  1103
 total energy-change (2. order) : 0.1171456E+02  (-0.2649922E+00)
 number of electron     111.9999621 magnetization 
 augmentation part       16.6914216 magnetization 

 DIPCOR: dipole corrections for dipol
 direction  3 min pos     3,
 dipolmoment          -0.009888      0.009888     -0.013984 electrons x Angstroem
 Tr[quadrupol]      -727.347196

 energy correction for charged system         0.000000 eV
 dipol+quadrupol energy correction            0.000027 eV
 added-field ion interaction          0.000000 eV  (added to PSCEN)


 Broyden mixing:
  rms(total) = 0.11119E+02    rms(broyden)= 0.11119E+02
  rms(prec ) = 0.11259E+02
  weight for this iteration     100.00

 eigenvalues of (default mixing * dielectric matrix)
  average eigenvalue GAMMA=   0.4474
  1.6897  0.8806  0.8806  0.8932  0.5225  0.5225  0.3634  0.3634  0.2821  0.1031
  0.0508  0.0391  0.0391  0.0593  0.0216

 Free energy of the ion-electron system (eV)
  ---------------------------------------------------
  alpha Z        PSCENC =        -1.95974969
  Ewald energy   TEWEN  =     15905.22280977
  -Hartree energ DENC   =    -21914.38867561
  -exchange      EXHF   =         0.00000000
  -V(xc)+E(xc)   XCENC  =      -459.74416032
  PAW double counting   =   2440549.28652254 -2440029.30414328
  entropy T*S    EENTRO =        -0.04481704
  eigenvalues    EBANDS =      -295.42950019
  atomic energy  EATOM  =      6002.18016980
  Solvation  Ediel_sol  =         0.00000000
  ---------------------------------------------------
  free energy    TOTEN  =      -244.18154402 eV

  energy without entropy =     -244.13672698  energy(sigma->0) =     -244.15913550


--------------------------------------------------------------------------------------------------------




--------------------------------------- Iteration      1(  21)  ---------------------------------------


    POTLOK:  cpu time    0.0120: real time    0.0120
    SETDIJ:  cpu time    0.0442: real time    0.0442
    EDDIAG:  cpu time    0.0552: real time    0.0561
  RMM-DIIS:  cpu time    0.0878: real time    0.0878
    ORTHCH:  cpu time    0.0096: real time    0.0096
       DOS:  cpu time    0.0005: real time    0.0005
    CHARGE:  cpu time    0.0144: real time    0.0144
    MIXING:  cpu time    0.0009: real time    0.0009
    --------------------------------------------
      LOOP:  cpu time    0.2246: real time    0.2255

 eigenvalue-minimisations  :   981
 total energy-change (2. order) :-0.4490596E+00  (-0.1520954E-01)
 number of electron     111.9999621 magnetization 
 augmentation part       16.6741907 magnetization 

 DIPCOR: dipole corrections for dipol
 direction  3 min pos     3,
 dipolmoment          -0.011483      0.011483     -0.016240 electrons x Angstroem
 Tr[quadrupol]      -727.271271

 energy correction for charged system         0.000000 eV
 dipol+quadrupol energy correction            0.000037 eV
 added-field ion interaction          0.000000 eV  (added to PSCEN)


 Broyden mixing:
  rms(total) = 0.10765E+02    rms(broyden)= 0.10765E+02
  rms(prec ) = 0.10911E+02
  weight for this iteration     100.00

 eigenvalues of (default mixing * dielectric matrix)
  average eigenvalue GAMMA=   0.4763
  1.7765  1.1467  1.1467  0.8367  0.5349  0.5349  0.3660  0.3660  0.3000  0.2519
[...]
      6     -13.0902      2.00000
      7     -13.0058      2.00000
      8     -12.2503      2.00000
      9      -7.0970      2.00000
     10      -5.8199      2.00000
     11      -5.4779      2.00000
     12      -4.9347      2.00000
     13      -4.8975      2.00000
     14      -4.3904      2.00000
     15      -4.0027      2.00000
     16      -3.7147      2.00000
     17      -3.6142      2.00000
     18      -3.3385      2.00000
     19      -2.9649      2.00000
     20      -2.7055      2.00000
     21      -2.3090      2.00000
     22      -2.0468      2.00000
     23      -1.6640      2.00000
     24      -1.6624      2.00000
     25      -1.5553      2.00000
     26      -1.1726      2.00000
     27      -0.6755      2.00000
     28      -0.5471      2.00000
     29      -0.1953      2.00000
     30       0.3066      2.00000
     31       0.6320      2.00000
     32       1.0668      2.00000
     33       1.2897      2.00000
     34       1.4513      2.00000
     35       1.9634      2.00000
     36       2.2780      2.00000
     37       2.7839      2.00000
     38       2.9031      2.00000
     39       3.0385      2.00000
     40       3.3216      2.00000
     41       3.6040      2.00000
     42       3.8009      1.99544
     43       3.8020      1.99520
     44       3.8152      1.99155
     45       3.8274      1.98614
     46       3.8506      1.96705
     47       3.8599      1.95462
     48       3.8642      1.94770
     49       3.8743      1.92777
     50       3.8816      1.90979
     51       3.8885      1.88969
     52       3.9046      1.82914
     53       3.9161      1.77226
     54       3.9413      1.60463
     55       3.9571      1.46927
     56       3.9735      1.30689
     57       4.0258      0.72971
     58       4.0479      0.51077
     59       4.1345      0.05976
     60       4.1743      0.01451
     61       4.3615      0.00000
     62       4.3787      0.00000
     63       4.4584      0.00000
     64       4.5040      0.00000
     65       4.5852      0.00000
     66       4.7048      0.00000
     67       4.9030      0.00000
     68       5.0598      0.00000
     69       5.2793      0.00000
     70       5.3259      0.00000
     71       5.6871      0.00000
     72       6.2561      0.00000
     73       6.2831      0.00000
     74       6.6471      0.00000
     75       6.7286      0.00000
     76       6.8233      0.00000
     77       7.0084      0.00000
     78       7.1292      0.00000
     79       7.4530      0.00000
     80      11.9200      0.00000

 k-point     4 :       0.3333    0.3333   -0.0000
  band No.  band energies     occupation 
      1     -17.1023      2.00000
      2     -16.5169      2.00000
      3     -15.7716      2.00000
      4     -14.9302      2.00000
      5     -14.0364      2.00000
      6     -13.0071      2.00000
      7     -12.9726      2.00000
      8     -12.2126      2.00000
      9      -7.0975      2.00000
     10      -5.6941      2.00000
     11      -5.5720      2.00000
     12      -5.4679      2.00000
     13      -5.1530      2.00000
     14      -4.8030      2.00000
     15      -4.4558      2.00000
     16      -3.9467      2.00000
     17      -3.6699      2.00000
     18      -3.5831      2.00000
     19      -3.2361      2.00000
     20      -2.9367      2.00000
     21      -2.6080      2.00000
     22      -2.1994      2.00000
     23      -1.9489      2.00000
     24      -1.5865      2.00000
     25      -1.2143      2.00000
     26      -1.1023      2.00000
     27      -0.9498      2.00000
     28      -0.5581      2.00000
     29       0.1182      2.00000
     30       0.5861      2.00000
     31       0.7621      2.00000
     32       1.0794      2.00000
     33       1.4060      2.00000
     34       1.5134      2.00000
     35       2.3133      2.00000
     36       2.5402      2.00000
     37       2.8288      2.00000
     38       3.0183      2.00000
     39       3.2032      2.00000
     40       3.3231      2.00000
     41       3.4145      2.00000
     42       3.5394      2.00000
     43       3.6650      2.00000
     44       3.7127      1.99996
     45       3.7493      1.99964
     46       3.8024      1.99511
     47       3.8545      1.96232
     48       3.8669      1.94295
     49       3.8751      1.92603
     50       3.8855      1.89885
     51       3.8991      1.85220
     52       3.9076      1.81552
     53       3.9171      1.76679
     54       3.9394      1.61925
     55       3.9567      1.47317
     56       3.9759      1.28128
     57       3.9890      1.13909
     58       4.0095      0.90848
     59       4.0376      0.60914
     60       4.0564      0.43711
     61       4.1145      0.10991
     62       4.1820      0.01065
     63       4.2448      0.00058
     64       4.3851      0.00000
     65       4.4489      0.00000
     66       4.5227      0.00000
     67       4.5811      0.00000
     68       4.8103      0.00000
     69       5.2745      0.00000
     70       5.3374      0.00000
     71       6.3211      0.00000
     72       6.4405      0.00000
     73       6.5907      0.00000
     74       6.7762      0.00000
     75       7.0679      0.00000
     76       7.2317      0.00000
     77       7.4071      0.00000
     78       7.6122      0.00000
     79       7.7646      0.00000
     80      12.3448      0.00000


--------------------------------------------------------------------------------------------------------


 soft charge-density along one line, spin component           1
         0         1         2         3         4         5         6         7         8         9
 total charge-density along one line
 
 pseudopotential strength for first ion, spin component:           1
  1.444   6.456  -0.004   0.011   0.004
  6.456  28.451  -0.012   0.059   0.012
 -0.004  -0.012   5.483  -0.001  -0.003
  0.011   0.059  -0.001   5.485   0.001
  0.004   0.012  -0.003   0.001   5.483
 total augmentation occupancy for first ion, spin component:           1
  1.823   0.011  -0.079   0.206   0.079
  0.011   0.000  -0.001   0.001   0.001
 -0.079  -0.001   0.032  -0.010  -0.007
  0.206   0.001  -0.010   0.051   0.010
  0.079   0.001  -0.007   0.010   0.032


------------------------ aborting loop EDIFF was not reached (unconverged)  ----------------------------


 -----------------------------------------------------------------------------
|                                                                             |
|           W    W    AA    RRRRR   N    N  II  N    N   GGGG   !!!           |
|           W    W   A  A   R    R  NN   N  II  NN   N  G    G  !!!           |
|           W    W  A    A  R    R  N N  N  II  N N  N  G       !!!           |
|           W WW W  AAAAAA  RRRRR   N  N N  II  N  N N  G  GGG   !            |
|           WW  WW  A    A  R   R   N   NN  II  N   NN  G    G                |
|           W    W  A    A  R    R  N    N  II  N    N   GGGG   !!!           |
|                                                                             |
|     The electronic self-consistency was not achieved in the given           |
|     number of steps (NELM). The forces and other quantities evaluated       |
|     might not be reliable so examine the results carefully. If you find     |
|     spurious results, we suggest increasing NELM, if you were close to      |
|     convergence or switching to a different ALGO or adjusting the           |
|     density mixing parameters otherwise.                                    |
|                                                                             |
 -----------------------------------------------------------------------------

    CHARGE:  cpu time    0.0148: real time    0.0148
    FORLOC:  cpu time    0.0015: real time    0.0017
    FORNL :  cpu time    0.1417: real time    0.2364
    STRESS:  cpu time    0.1017: real time    0.1023
    FORCOR:  cpu time    0.0129: real time    0.0134
    FORHAR:  cpu time    0.0041: real time    0.0041
    MIXING:  cpu time    0.0030: real time    0.0031
    OFIELD:  cpu time    0.0003: real time    0.0007

  FORCE on cell =-STRESS in cart. coord.  units (eV):
  Direction    XX          YY          ZZ          XY          YZ          ZX
  --------------------------------------------------------------------------------------
  Alpha Z    -1.95978    -1.95978    -1.95978
  Ewald   19062.66645 19062.66645-22339.98432  -294.52391  -410.49087   410.49085
  Hartree 20655.85772 20655.85768-19400.27561  -188.74613  -248.77550   248.77550
  E(xc)    -486.01047  -486.01047  -484.63746    -1.15292    -1.58712     1.58712
  Local  -41485.53171-41485.53165 39974.99589   477.07597   648.47719  -648.47718
  n-local   229.29764   216.04342   207.13580    14.54020    14.86477   -22.99607
  augment   239.87772   239.87772   240.77954    -1.31380    -1.27803     1.27757
  Kinetic  1941.16783  1944.87693  1955.11975   -15.46916   -15.40079    22.01194
  Fock        0.00000     0.00000     0.00000     0.00000     0.00000     0.00000
  -------------------------------------------------------------------------------------
  Total     150.59285   150.59285   151.17380    -9.59148   -13.42984    13.42984
  in kB     372.83755   372.83755   374.27584   -23.74656   -33.24958    33.24958
  external pressure =      373.32 kB  Pullay stress =        0.00 kB


 VOLUME and BASIS-vectors are now :
 -----------------------------------------------------------------------------
  energy-cutoff  :      400.00
  volume of cell :      647.14
      direct lattice vectors                 reciprocal lattice vectors
    -3.151842525 -3.151842525  0.000000000    -0.158637367 -0.158637367  0.000000000
     4.457378445 -4.457378445  0.000000000     0.112173558 -0.112173558 -0.158637367
    16.285694814-16.285694814 23.031450479     0.000000000  0.000000000  0.043418889

  length of vectors
     4.457378445  6.303685050 32.571389628     0.224347116  0.224347116  0.043418889


 FORCES acting on ions
    electron-ion (+dipol)            ewald-force                    non-local-force                 convergence-correction
 -----------------------------------------------------------------------------------------------
   0.438E+01 -.438E+01 0.159E+03   -.364E+01 0.364E+01 -.159E+03   -.203E+01 0.203E+01 -.516E+01   -.385E-04 0.385E-04 0.917E-04
   -.372E+01 0.372E+01 0.153E+03   0.364E+01 -.364E+01 -.153E+03   0.305E+00 -.305E+00 -.299E+01   -.113E-03 0.113E-03 0.247E-03
   -.421E+01 0.421E+01 0.160E+03   0.364E+01 -.364E+01 -.160E+03   0.169E+01 -.169E+01 -.476E+01   0.390E-04 -.390E-04 -.233E-04
   0.432E+01 -.432E+01 0.151E+03   -.364E+01 0.364E+01 -.150E+03   -.177E+01 0.177E+01 -.810E+01   -.142E-03 0.142E-03 0.220E-03
   -.181E-01 0.181E-01 0.102E+03   -.179E-01 0.179E-01 -.102E+03   0.678E-01 -.678E-01 -.203E+00   0.180E-03 -.180E-03 0.792E-03
   -.384E+01 0.384E+01 0.152E+03   0.364E+01 -.364E+01 -.151E+03   0.108E+01 -.108E+01 -.267E+01   0.141E-03 -.141E-03 0.379E-03
   0.158E+00 -.158E+00 0.101E+03   0.179E-01 -.179E-01 -.100E+03   -.203E+01 0.203E+01 -.452E+01   0.227E-03 -.227E-03 0.872E-03
   0.608E-01 -.608E-01 0.471E+02   -.180E-01 0.180E-01 -.470E+02   -.201E-01 0.201E-01 -.199E+00   0.191E-03 -.191E-03 0.720E-03
   0.105E+00 -.105E+00 0.102E+03   -.179E-01 0.179E-01 -.101E+03   -.202E+00 0.202E+00 0.222E-01   -.227E-03 0.227E-03 0.958E-03
   -.875E-01 0.877E-01 0.469E+02   0.180E-01 -.180E-01 -.470E+02   0.118E+01 -.118E+01 0.917E+00   0.242E-03 -.242E-03 0.797E-03
   0.336E-01 -.336E-01 -.681E+01   -.307E-05 -.207E-04 0.669E+01   -.121E-01 0.121E-01 0.964E-01   -.219E-03 0.219E-03 -.620E-04
   -.705E-02 0.698E-02 0.471E+02   -.180E-01 0.180E-01 -.469E+02   0.628E-01 -.628E-01 -.184E+00   -.243E-03 0.243E-03 0.756E-03
   -.137E+00 0.137E+00 -.658E+01   0.855E-05 0.149E-05 0.673E+01   0.136E+01 -.136E+01 -.139E+01   -.281E-03 0.281E-03 -.144E-03
   0.158E-01 -.158E-01 -.605E+02   0.180E-01 -.180E-01 0.603E+02   -.101E+00 0.101E+00 0.313E+00   -.715E-04 0.715E-04 -.200E-03
   0.401E-02 -.407E-02 -.697E+01   0.483E-05 0.190E-04 0.673E+01   -.218E-01 0.218E-01 0.286E+00   0.280E-03 -.280E-03 -.112E-04
   -.236E+00 0.236E+00 -.608E+02   -.180E-01 0.180E-01 0.606E+02   0.176E+01 -.176E+01 -.192E+01   -.885E-04 0.885E-04 -.236E-03
   -.116E+01 0.116E+01 -.115E+03   0.179E-01 -.179E-01 0.114E+03   0.150E+01 -.150E+01 0.235E+01   0.809E-04 -.809E-04 -.183E-03
   -.294E-02 0.287E-02 -.619E+02   0.180E-01 -.180E-01 0.606E+02   0.920E-01 -.920E-01 0.186E+01   0.897E-04 -.897E-04 -.389E-03
   -.120E+01 0.120E+01 -.117E+03   -.179E-01 0.179E-01 0.114E+03   0.111E+02 -.111E+02 0.263E+02   0.100E-03 -.100E-03 -.169E-03
   0.468E+01 -.468E+01 -.158E+03   -.364E+01 0.364E+01 0.158E+03   -.123E+01 0.123E+01 0.378E+01   -.215E-04 0.215E-04 -.441E-03
   -.586E+00 0.586E+00 -.114E+03   0.179E-01 -.179E-01 0.115E+03   -.303E+00 0.303E+00 0.278E+01   -.999E-04 0.999E-04 -.270E-03
   0.228E+02 -.228E+02 0.900E+03   -.218E+02 0.218E+02 -.898E+03   -.163E+01 0.163E+01 0.968E+00   -.156E-02 0.156E-02 -.698E-04
   0.531E+00 -.530E+00 0.602E+03   0.107E+00 -.107E+00 -.600E+03   0.125E+01 -.125E+01 0.207E+01   0.265E-02 -.265E-02 0.708E-02
   -.302E+00 0.303E+00 0.282E+03   0.108E+00 -.108E+00 -.282E+03   -.863E+00 0.863E+00 -.773E+00   0.315E-02 -.315E-02 0.735E-02
   -.405E+00 0.406E+00 -.400E+02   0.513E-04 0.894E-05 0.404E+02   -.774E+00 0.774E+00 0.596E+00   -.326E-02 0.326E-02 -.295E-02
   -.742E+00 0.743E+00 -.364E+03   -.108E+00 0.108E+00 0.363E+03   -.656E+00 0.656E+00 0.320E+01   -.124E-02 0.124E-02 -.236E-02
   -.257E+01 0.257E+01 -.687E+03   -.107E+00 0.107E+00 0.684E+03   -.525E+01 0.525E+01 -.106E+02   0.113E-02 -.113E-02 -.839E-04
   -.184E+02 0.184E+02 -.930E+03   0.218E+02 -.218E+02 0.942E+03   -.487E+01 0.487E+01 -.148E+02   -.386E-03 0.386E-03 -.260E-02
   0.247E+02 -.247E+02 0.106E+04   -.254E+02 0.254E+02 -.106E+04   -.666E+00 0.666E+00 -.437E+01   0.106E-02 -.106E-02 0.216E-02
   -.529E+00 0.530E+00 0.702E+03   0.125E+00 -.125E+00 -.702E+03   0.853E+00 -.853E+00 0.120E+01   -.168E-02 0.168E-02 0.661E-02
   -.135E+00 0.136E+00 0.329E+03   0.126E+00 -.126E+00 -.329E+03   0.522E+00 -.522E+00 0.580E+00   -.178E-02 0.178E-02 0.548E-02
   0.141E+00 -.141E+00 -.466E+02   -.616E-04 -.860E-05 0.468E+02   0.581E-01 -.581E-01 0.328E-01   0.199E-02 -.199E-02 -.129E-03
   0.266E+00 -.265E+00 -.422E+03   -.126E+00 0.126E+00 0.422E+03   -.477E+00 0.477E+00 -.208E+00   0.619E-03 -.619E-03 -.229E-02
   -.661E-01 0.669E-01 -.785E+03   -.125E+00 0.125E+00 0.786E+03   -.499E+00 0.499E+00 -.125E+01   -.747E-03 0.747E-03 -.129E-02
   -.250E+02 0.250E+02 -.110E+04   0.254E+02 -.254E+02 0.110E+04   0.160E+01 -.160E+01 0.408E+01   0.226E-03 -.226E-03 -.215E-02
 -----------------------------------------------------------------------------------------------
   -.110E+01 0.111E+01 0.127E+02   0.107E-13 -.142E-13 -.455E-12   0.110E+01 -.110E+01 -.127E+02   0.199E-03 -.199E-03 0.185E-01
 
 
 POSITION                                       TOTAL-FORCE (eV/Angst)
 -----------------------------------------------------------------------------------
      4.89541     -8.04725      6.00000        -1.286622      1.286622     -4.971849
      7.58567     -7.58567      7.57592         0.216639     -0.216639     -2.853130
      7.12410    -10.27594      6.00000         1.114180     -1.114180     -4.549991
      6.00975     -9.16160      7.57592        -1.086329      1.086329     -6.499812
      8.70002     -8.70002      9.15184         0.031996     -0.031996     -0.224806
      8.23844    -11.39029      7.57592         0.876854     -0.876854     -1.763157
      7.12410    -10.27594      9.15184        -1.854673      1.854673     -4.017667
      9.81436     -9.81436     10.72776         0.023006     -0.023006     -0.112655
      9.35279    -12.50463      9.15184        -0.115302      0.115302      0.259047
      8.23844    -11.39029     10.72776         1.114757     -1.114757      0.880124
     10.92871    -10.92871     12.30369         0.021350     -0.021350     -0.017924
     10.46713    -13.61897     10.72776         0.037572     -0.037572     -0.078566
      9.35279    -12.50463     12.30369         1.224749     -1.224749     -1.244357
     12.04305    -12.04305     13.87961        -0.067036      0.067036      0.098409
     11.58148    -14.73332     12.30369        -0.017420      0.017420      0.043450
     10.46713    -13.61897     13.87961         1.504572     -1.504572     -2.188745
     13.15740    -13.15740     15.45553         0.360581     -0.360581      1.251398
     12.69582    -15.84766     13.87961         0.107144     -0.107144      0.573836
     11.58148    -14.73332     15.45553         9.891220     -9.891220     23.066948
     14.27174    -14.27174     17.03145        -0.192978      0.192978      3.889739
     13.81017    -16.96201     15.45553        -0.871127      0.871127      4.440431
      6.00975     -9.16160      7.57592        -0.668040      0.668040      3.467908
      7.12410    -10.27594      9.15184         1.891040     -1.891040      3.861539
      8.23844    -11.39029     10.72776        -1.054312      1.054312     -0.822744
      9.35279    -12.50463     12.30369        -1.182694      1.182694      0.992216
     10.46713    -13.61897     13.87961        -1.507868      1.507868      2.372587
     11.58148    -14.73332     15.45553        -7.922406      7.922406    -13.509128
     12.69582    -15.84766     17.03145        -1.415254      1.415254     -2.985811
      9.81436     -9.81436      7.57592        -1.366396      1.366396     -6.098994
     10.92871    -10.92871      9.15184         0.446751     -0.446751      0.696471
     12.04305    -12.04305     10.72776         0.510864     -0.510864      0.612586
     13.15740    -13.15740     12.30369         0.201011     -0.201011      0.249343
     14.27174    -14.27174     13.87961        -0.336940      0.336940      0.034177
     15.38609    -15.38609     15.45553        -0.691384      0.691384     -0.338689
     16.50043    -16.50043     17.03145         2.062497     -2.062497      5.487814
 -----------------------------------------------------------------------------------
    total drift:                                0.005490      0.007051      0.034227


--------------------------------------------------------------------------------------------------------



  FREE ENERGIE OF THE ION-ELECTRON SYSTEM (eV)
  ---------------------------------------------------
  free  energy   TOTEN  =      -223.53276417 eV

  energy  without entropy=     -223.09034162  energy(sigma->0) =     -223.31155289
 


--------------------------------------------------------------------------------------------------------


    POTLOK:  cpu time    0.0572: real time    0.0577


--------------------------------------------------------------------------------------------------------


     LOOP+:  cpu time   37.3029: real time   39.3022
    4ORBIT:  cpu time    0.0000: real time    0.0000

 total amount of memory used by VASP MPI-rank0    34698. kBytes
=======================================================================

   base      :      30000. kBytes
   nonlr-proj:       1527. kBytes
   fftplans  :        939. kBytes
   grid      :       1727. kBytes
   one-center:          9. kBytes
   wavefun   :        496. kBytes
 
  
  
 General timing and accounting informations for this job:
 ========================================================
  
                  Total CPU time used (sec):       38.123
                            User time (sec):       36.996
                          System time (sec):        1.126
                         Elapsed time (sec):       40.431
  
                   Maximum memory used (kb):      113048.
                   Average memory used (kb):          N/A
  
                          Minor page faults:       104721
                          Major page faults:            0
                 Voluntary context switches:         3438
