unknown system                          
           1
    -3.151843   -3.151843    0.000000
     4.457378   -4.457378    0.000000
    16.285695  -16.285695   23.031450
   Na   O    Cl
    21     7     7
Direct configuration=     1
   0.50000017  0.49999983  0.26051334
   0.00000010  0.49999983  0.32893810
   0.50000017  0.99999990  0.26051334
   0.50000017  0.49999983  0.32893810
   0.00000010  0.49999983  0.39736286
   0.50000017  0.99999990  0.32893810
   0.50000017  0.49999983  0.39736286
   0.00000010  0.49999983  0.46578762
   0.50000017  0.99999990  0.39736286
   0.50000017  0.49999983  0.46578762
   0.00000010  0.49999983  0.53421238
   0.50000017  0.99999990  0.46578762
   0.50000017  0.49999983  0.53421238
   0.00000010  0.49999983  0.60263714
   0.50000017  0.99999990  0.53421238
   0.50000017  0.49999983  0.60263714
   0.00000010  0.49999983  0.67106190
   0.50000017  0.99999990  0.60263714
   0.50000017  0.49999983  0.67106190
   0.00000010  0.49999983  0.73948666
   0.50000017  0.99999990  0.67106190
   0.50000017  0.49999983  0.32893810
   0.50000017  0.49999983  0.39736286
   0.50000017  0.49999983  0.46578762
   0.50000017  0.49999983  0.53421238
   0.50000017  0.49999983  0.60263714
   0.50000017  0.49999983  0.67106190
   0.50000017  0.49999983  0.73948666
   0.00000010  0.99999990  0.32893808
   0.00000010  0.99999990  0.39736284
   0.00000010  0.99999990  0.46578760
   0.00000010  0.99999990  0.53421236
   0.00000010  0.99999990  0.60263712
   0.00000010  0.99999990  0.67106188
   0.00000010  0.99999990  0.73948664
