  25  25   0   0
  0.2234302E+02  0.4457379E-09  0.6303685E-09  0.2811401E-08  0.5000000E-15
  1.000000000000000E-004
  CAR 
 unknown system                          
      7.45863038    -19.49644106  301      2.53507521      1.00000000
    -19.496  0.0000E+00  0.0000E+00
    -19.407  0.0000E+00  0.0000E+00
    -19.317  0.0000E+00  0.0000E+00
    -19.227  0.0000E+00  0.0000E+00
    -19.137  0.0000E+00  0.0000E+00
    -19.047  0.0000E+00  0.0000E+00
    -18.957  0.0000E+00  0.0000E+00
    -18.867  0.0000E+00  0.0000E+00
    -18.778  0.1012E-11  0.9096E-13
    -18.688  0.5021E-08  0.4512E-09
    -18.598  0.5297E-05  0.4764E-06
    -18.508  0.1240E-02  0.1119E-03
    -18.418  0.6908E-01  0.6319E-02
    -18.328  0.1033E+01  0.9913E-01
    -18.239  0.4974E+01  0.5461E+00
    -18.149  0.9026E+01  0.1357E+01
    -18.059  0.5920E+01  0.1889E+01
    -17.969  0.1175E+01  0.1995E+01
    -17.879  0.6045E-01  0.2000E+01
    -17.789  0.7273E-03  0.2000E+01
    -17.699  0.1924E-05  0.2000E+01
    -17.610  0.3167E-07  0.2000E+01
    -17.520  0.2478E-04  0.2000E+01
    -17.430  0.4360E-02  0.2000E+01
    -17.340  0.1783E+00  0.2016E+01
    -17.250  0.1941E+01  0.2191E+01
    -17.160  0.6883E+01  0.2809E+01
    -17.070  0.8922E+01  0.3611E+01
    -16.981  0.3845E+01  0.3956E+01
    -16.891  0.4701E+00  0.3999E+01
    -16.801  0.1453E-01  0.4000E+01
    -16.711  0.1054E-03  0.4000E+01
    -16.621  0.1708E-06  0.4000E+01
    -16.531  0.9375E-10  0.4000E+01
    -16.442  0.1008E-06  0.4000E+01
    -16.352  0.6289E-04  0.4000E+01
    -16.262  0.8633E-02  0.4001E+01
    -16.172  0.2838E+00  0.4026E+01
    -16.082  0.2598E+01  0.4260E+01
    -15.992  0.7868E+01  0.4967E+01
    -15.902  0.8351E+01  0.5717E+01
    -15.813  0.2861E+01  0.5974E+01
    -15.723  0.2813E+00  0.5999E+01
    -15.633  0.7167E-02  0.6000E+01
    -15.543  0.4354E-04  0.6000E+01
    -15.453  0.5918E-07  0.6000E+01
    -15.363  0.1723E-10  0.6000E+01
    -15.273  0.4424E-12  0.6000E+01
    -15.184  0.2907E-08  0.6000E+01
    -15.094  0.3974E-05  0.6000E+01
    -15.004  0.1154E-02  0.6000E+01
    -14.914  0.7485E-01  0.6007E+01
    -14.824  0.1205E+01  0.6115E+01
    -14.734  0.5765E+01  0.6633E+01
    -14.645  0.9434E+01  0.7481E+01
    -14.555  0.5015E+01  0.7931E+01
    -14.465  0.8201E+00  0.8005E+01
    -14.375  0.1616E+01  0.8150E+01
    -14.285  0.7718E+01  0.8844E+01
    -14.195  0.9591E+01  0.9705E+01
    -14.105  0.3039E+01  0.9978E+01
    -14.016  0.2359E+00  0.1000E+02
    -13.926  0.4246E-02  0.1000E+02
    -13.836  0.2924E-03  0.1000E+02
    -13.746  0.2567E-01  0.1000E+02
    -13.656  0.6407E+00  0.1006E+02
    -13.566  0.4626E+01  0.1048E+02
    -13.476  0.9864E+01  0.1136E+02
    -13.387  0.6051E+01  0.1191E+02
    -13.297  0.1009E+01  0.1200E+02
    -13.207  0.4240E-01  0.1200E+02
    -13.117  0.4176E-03  0.1200E+02
    -13.027  0.9103E-06  0.1200E+02
    -12.937  0.4229E-09  0.1200E+02
    -12.848  0.3954E-13  0.1200E+02
    -12.758  0.0000E+00  0.1200E+02
    -12.668  0.0000E+00  0.1200E+02
    -12.578  0.0000E+00  0.1200E+02
    -12.488  0.0000E+00  0.1200E+02
    -12.398  0.0000E+00  0.1200E+02
    -12.308  0.0000E+00  0.1200E+02
    -12.219  0.0000E+00  0.1200E+02
    -12.129  0.0000E+00  0.1200E+02
    -12.039  0.0000E+00  0.1200E+02
    -11.949  0.0000E+00  0.1200E+02
    -11.859  0.0000E+00  0.1200E+02
    -11.769  0.0000E+00  0.1200E+02
    -11.679  0.0000E+00  0.1200E+02
    -11.590  0.0000E+00  0.1200E+02
    -11.500  0.0000E+00  0.1200E+02
    -11.410  0.0000E+00  0.1200E+02
    -11.320  0.0000E+00  0.1200E+02
    -11.230  0.0000E+00  0.1200E+02
    -11.140  0.0000E+00  0.1200E+02
    -11.051  0.0000E+00  0.1200E+02
    -10.961  0.0000E+00  0.1200E+02
    -10.871  0.0000E+00  0.1200E+02
    -10.781  0.0000E+00  0.1200E+02
    -10.691  0.0000E+00  0.1200E+02
    -10.601  0.0000E+00  0.1200E+02
    -10.511  0.0000E+00  0.1200E+02
    -10.422  0.0000E+00  0.1200E+02
    -10.332  0.0000E+00  0.1200E+02
    -10.242  0.0000E+00  0.1200E+02
    -10.152  0.0000E+00  0.1200E+02
    -10.062  0.0000E+00  0.1200E+02
     -9.972  0.0000E+00  0.1200E+02
     -9.882  0.0000E+00  0.1200E+02
     -9.793  0.0000E+00  0.1200E+02
     -9.703  0.0000E+00  0.1200E+02
     -9.613  0.0000E+00  0.1200E+02
     -9.523  0.0000E+00  0.1200E+02
     -9.433  0.0000E+00  0.1200E+02
     -9.343  0.0000E+00  0.1200E+02
     -9.254  0.0000E+00  0.1200E+02
     -9.164  0.0000E+00  0.1200E+02
     -9.074  0.0000E+00  0.1200E+02
     -8.984  0.0000E+00  0.1200E+02
     -8.894  0.0000E+00  0.1200E+02
     -8.804  0.0000E+00  0.1200E+02
     -8.714  0.0000E+00  0.1200E+02
     -8.625  0.0000E+00  0.1200E+02
     -8.535  0.0000E+00  0.1200E+02
     -8.445  0.1098E-14  0.1200E+02
     -8.355  0.1771E-10  0.1200E+02
     -8.265  0.7549E-07  0.1200E+02
     -8.175  0.6681E-04  0.1200E+02
     -8.085  0.1251E-01  0.1200E+02
     -7.996  0.5111E+00  0.1205E+02
     -7.906  0.4754E+01  0.1247E+02
     -7.816  0.1053E+02  0.1342E+02
     -7.726  0.5690E+01  0.1393E+02
     -7.636  0.7357E+00  0.1400E+02
     -7.546  0.2179E-01  0.1400E+02
     -7.457  0.1414E-03  0.1400E+02
     -7.367  0.1949E-06  0.1400E+02
     -7.277  0.1596E-07  0.1400E+02
     -7.187  0.1445E-04  0.1400E+02
     -7.097  0.2824E-02  0.1400E+02
     -7.007  0.1264E+00  0.1401E+02
     -6.917  0.1470E+01  0.1414E+02
     -6.828  0.5505E+01  0.1464E+02
     -6.738  0.8086E+01  0.1536E+02
     -6.648  0.5843E+01  0.1589E+02
     -6.558  0.5211E+01  0.1636E+02
     -6.468  0.3076E+01  0.1663E+02
     -6.378  0.1393E+01  0.1676E+02
     -6.288  0.2696E+01  0.1700E+02
     -6.199  0.2751E+01  0.1725E+02
     -6.109  0.1103E+01  0.1735E+02
     -6.019  0.1926E+01  0.1752E+02
     -5.929  0.3846E+01  0.1787E+02
     -5.839  0.4546E+01  0.1828E+02
     -5.749  0.7276E+01  0.1893E+02
     -5.660  0.6118E+01  0.1948E+02
     -5.570  0.4257E+01  0.1986E+02
     -5.480  0.6934E+01  0.2048E+02
     -5.390  0.1247E+02  0.2160E+02
     -5.300  0.1136E+02  0.2262E+02
     -5.210  0.6355E+01  0.2320E+02
     -5.120  0.2374E+01  0.2341E+02
     -5.031  0.3248E+01  0.2370E+02
     -4.941  0.2742E+01  0.2395E+02
     -4.851  0.9248E+00  0.2403E+02
     -4.761  0.2870E+01  0.2429E+02
     -4.671  0.6466E+01  0.2487E+02
     -4.581  0.6254E+01  0.2543E+02
     -4.491  0.5589E+01  0.2593E+02
     -4.402  0.5147E+01  0.2640E+02
     -4.312  0.5042E+01  0.2685E+02
     -4.222  0.4239E+01  0.2723E+02
     -4.132  0.1472E+01  0.2736E+02
     -4.042  0.2363E+01  0.2757E+02
     -3.952  0.3457E+01  0.2788E+02
     -3.862  0.2355E+01  0.2810E+02
     -3.773  0.5962E+01  0.2863E+02
     -3.683  0.7643E+01  0.2932E+02
     -3.593  0.3298E+01  0.2961E+02
     -3.503  0.4454E+01  0.3002E+02
     -3.413  0.8316E+01  0.3076E+02
     -3.323  0.5464E+01  0.3125E+02
     -3.234  0.2090E+01  0.3144E+02
     -3.144  0.3487E+01  0.3175E+02
     -3.054  0.3387E+01  0.3206E+02
     -2.964  0.3528E+01  0.3238E+02
     -2.874  0.5317E+01  0.3285E+02
     -2.784  0.8970E+01  0.3366E+02
     -2.694  0.7842E+01  0.3436E+02
     -2.605  0.3641E+01  0.3469E+02
     -2.515  0.4956E+01  0.3514E+02
     -2.425  0.8734E+01  0.3592E+02
     -2.335  0.9738E+01  0.3680E+02
     -2.245  0.1136E+02  0.3782E+02
     -2.155  0.1119E+02  0.3882E+02
     -2.065  0.4971E+01  0.3927E+02
     -1.976  0.7508E+00  0.3934E+02
     -1.886  0.8607E+00  0.3941E+02
     -1.796  0.3098E+01  0.3969E+02
     -1.706  0.3720E+01  0.4003E+02
     -1.616  0.4230E+01  0.4041E+02
     -1.526  0.5419E+01  0.4089E+02
     -1.437  0.5262E+01  0.4137E+02
     -1.347  0.4988E+01  0.4181E+02
     -1.257  0.1887E+01  0.4198E+02
     -1.167  0.1884E+00  0.4200E+02
     -1.077  0.2358E+00  0.4202E+02
     -0.987  0.1490E+01  0.4216E+02
     -0.897  0.2433E+01  0.4237E+02
     -0.808  0.2142E+01  0.4257E+02
     -0.718  0.3795E+01  0.4291E+02
     -0.628  0.6119E+01  0.4346E+02
     -0.538  0.7030E+01  0.4409E+02
     -0.448  0.1045E+02  0.4503E+02
     -0.358  0.1293E+02  0.4619E+02
     -0.268  0.2011E+02  0.4800E+02
     -0.179  0.2435E+02  0.5018E+02
     -0.089  0.1255E+02  0.5131E+02
      0.001  0.8452E+01  0.5207E+02
      0.091  0.1323E+02  0.5326E+02
      0.181  0.1447E+02  0.5456E+02
      0.271  0.1282E+02  0.5571E+02
      0.360  0.8876E+01  0.5651E+02
      0.450  0.7582E+01  0.5719E+02
      0.540  0.6542E+01  0.5778E+02
      0.630  0.2203E+01  0.5798E+02
      0.720  0.2502E+00  0.5800E+02
      0.810  0.8658E-02  0.5800E+02
      0.900  0.7897E-04  0.5800E+02
      0.989  0.5206E-03  0.5800E+02
      1.079  0.4056E-01  0.5800E+02
      1.169  0.7584E+00  0.5807E+02
      1.259  0.4152E+01  0.5844E+02
      1.349  0.9391E+01  0.5929E+02
      1.439  0.9504E+01  0.6014E+02
      1.529  0.4409E+01  0.6054E+02
      1.618  0.5842E+01  0.6106E+02
      1.708  0.8955E+01  0.6187E+02
      1.798  0.9387E+01  0.6271E+02
      1.888  0.1271E+02  0.6385E+02
      1.978  0.1622E+02  0.6531E+02
      2.068  0.1507E+02  0.6667E+02
      2.157  0.9838E+01  0.6755E+02
      2.247  0.1535E+02  0.6893E+02
      2.337  0.2989E+02  0.7161E+02
      2.427  0.4030E+02  0.7524E+02
      2.517  0.4446E+02  0.7923E+02
      2.607  0.3783E+02  0.8263E+02
      2.697  0.2570E+02  0.8494E+02
      2.786  0.1669E+02  0.8644E+02
      2.876  0.1190E+02  0.8751E+02
      2.966  0.1409E+02  0.8877E+02
      3.056  0.1482E+02  0.9011E+02
      3.146  0.1494E+02  0.9145E+02
      3.236  0.1448E+02  0.9275E+02
      3.326  0.1146E+02  0.9378E+02
      3.415  0.1103E+02  0.9477E+02
      3.505  0.9232E+01  0.9560E+02
      3.595  0.3969E+01  0.9596E+02
      3.685  0.1898E+01  0.9613E+02
      3.775  0.5571E+01  0.9663E+02
      3.865  0.8687E+01  0.9741E+02
      3.954  0.8689E+01  0.9819E+02
      4.044  0.1057E+02  0.9914E+02
      4.134  0.7788E+01  0.9984E+02
      4.224  0.2245E+01  0.1000E+03
      4.314  0.1266E+01  0.1002E+03
      4.404  0.7148E+00  0.1002E+03
      4.494  0.6202E+00  0.1003E+03
      4.583  0.2033E+01  0.1005E+03
      4.673  0.1905E+01  0.1006E+03
      4.763  0.4394E+00  0.1007E+03
      4.853  0.3458E+00  0.1007E+03
      4.943  0.3624E+01  0.1010E+03
      5.033  0.1132E+02  0.1020E+03
      5.123  0.1203E+02  0.1031E+03
      5.212  0.6855E+01  0.1037E+03
      5.302  0.5872E+01  0.1043E+03
      5.392  0.6634E+01  0.1049E+03
      5.482  0.1073E+02  0.1058E+03
      5.572  0.9595E+01  0.1067E+03
      5.662  0.9161E+01  0.1075E+03
      5.751  0.1368E+02  0.1087E+03
      5.841  0.1246E+02  0.1099E+03
      5.931  0.6391E+01  0.1104E+03
      6.021  0.4863E+01  0.1109E+03
      6.111  0.2757E+01  0.1111E+03
      6.201  0.3111E+01  0.1114E+03
      6.291  0.4648E+01  0.1118E+03
      6.380  0.1885E+01  0.1120E+03
      6.470  0.1819E+00  0.1120E+03
      6.560  0.3979E-02  0.1120E+03
      6.650  0.1890E-04  0.1120E+03
      6.740  0.1895E-07  0.1120E+03
      6.830  0.3933E-11  0.1120E+03
      6.920  0.0000E+00  0.1120E+03
      7.009  0.0000E+00  0.1120E+03
      7.099  0.0000E+00  0.1120E+03
      7.189  0.0000E+00  0.1120E+03
      7.279  0.0000E+00  0.1120E+03
      7.369  0.0000E+00  0.1120E+03
      7.459  0.0000E+00  0.1120E+03
