   25   25    1    1
  0.2234302E+02  0.4457378E-09  0.6303685E-09  0.2811401E-08  0.5000000E-15
  1.000000000000000E-004
  CAR 
 unknown system                          
     80      4     56
 
  0.0000000E+00  0.0000000E+00  0.0000000E+00  0.1111111E+00
    1      -18.271211   1.000000
    2      -17.175002   1.000000
    3      -16.012205   1.000000
    4      -14.752506   1.000000
    5      -14.282214   1.000000
    6      -13.570958   1.000000
    7       -7.851897   1.000000
    8       -6.345690   1.000000
    9       -5.974708   1.000000
   10       -5.812819   1.000000
   11       -5.448230   1.000000
   12       -5.040174   1.000000
   13       -4.658752   1.000000
   14       -4.017371   1.000000
   15       -3.757129   1.000000
   16       -3.156963   1.000000
   17       -3.016237   1.000000
   18       -2.826017   1.000000
   19       -2.249864   1.000000
   20       -1.780345   1.000000
   21       -1.558054   1.000000
   22       -0.577198   1.000000
   23       -0.417248   1.000000
   24       -0.270724   1.000000
   25       -0.211143   1.000000
   26       -0.010697   1.000000
   27        0.066599   1.000000
   28        0.288854   1.000000
   29        0.525874   1.000000
   30        1.249105   1.000000
   31        1.833712   1.000000
   32        1.903611   1.000000
   33        1.930977   1.000000
   34        2.217099   0.999997
   35        2.260539   0.999948
   36        2.324267   0.998565
   37        2.382113   0.984737
   38        2.406242   0.965771
   39        2.435854   0.919721
   40        2.499023   0.694923
   41        2.549924   0.416837
   42        2.607484   0.152913
   43        2.692111   0.013182
   44        2.729429   0.002993
   45        2.748519   0.001270
   46        3.069084   0.000000
   47        3.122331   0.000000
   48        3.388049   0.000000
   49        3.873557   0.000000
   50        3.882409   0.000000
   51        4.279931   0.000000
   52        5.005544   0.000000
   53        5.070924   0.000000
   54        5.113769   0.000000
   55        5.739567   0.000000
   56        5.799965   0.000000
 
  0.3333333E+00  0.0000000E+00  0.0000000E+00  0.2222222E+00
    1      -18.184988   1.000000
    2      -17.094489   1.000000
    3      -15.938477   1.000000
    4      -14.674208   1.000000
    5      -14.258913   1.000000
    6      -13.522941   1.000000
    7       -7.853102   1.000000
    8       -6.866250   1.000000
    9       -6.262902   1.000000
   10       -5.708825   1.000000
   11       -5.585886   1.000000
   12       -5.418643   1.000000
   13       -4.608856   1.000000
   14       -4.504761   1.000000
   15       -3.736694   1.000000
   16       -3.432326   1.000000
   17       -2.797273   1.000000
   18       -2.456344   1.000000
   19       -2.226223   1.000000
   20       -2.162235   1.000000
   21       -1.552150   1.000000
   22       -0.764407   1.000000
   23       -0.455632   1.000000
   24       -0.291286   1.000000
   25       -0.247960   1.000000
   26       -0.183789   1.000000
   27        0.098739   1.000000
   28        0.221461   1.000000
   29        0.406152   1.000000
   30        1.346896   1.000000
   31        1.591991   1.000000
   32        1.704913   1.000000
   33        1.988018   1.000000
   34        2.072654   1.000000
   35        2.297177   0.999616
   36        2.320881   0.998774
   37        2.384437   0.983429
   38        2.443025   0.903505
   39        2.479736   0.783072
   40        2.517185   0.599868
   41        2.558463   0.370415
   42        2.635090   0.078618
   43        2.729410   0.002995
   44        2.903562   0.000000
   45        2.987789   0.000000
   46        3.149919   0.000000
   47        3.235349   0.000000
   48        3.494857   0.000000
   49        3.745569   0.000000
   50        4.054713   0.000000
   51        5.096186   0.000000
   52        5.397159   0.000000
   53        5.489929   0.000000
   54        5.694763   0.000000
   55        5.784487   0.000000
   56        5.951527   0.000000
 
  0.0000000E+00  0.3333333E+00 -0.4440892E-15  0.2222222E+00
    1      -18.231866   1.000000
    2      -17.206514   1.000000
    3      -16.053279   1.000000
    4      -14.746512   1.000000
    5      -14.295410   1.000000
    6      -13.524788   1.000000
    7       -7.858323   1.000000
    8       -6.809992   1.000000
    9       -5.979371   1.000000
   10       -5.450521   1.000000
   11       -5.340666   1.000000
   12       -5.039405   1.000000
   13       -4.458414   1.000000
   14       -4.016888   1.000000
   15       -3.517386   1.000000
   16       -3.168903   1.000000
   17       -2.949736   1.000000
   18       -2.700057   1.000000
   19       -2.382333   1.000000
   20       -1.811225   1.000000
   21       -1.640433   1.000000
   22       -0.959837   1.000000
   23       -0.457877   1.000000
   24       -0.273237   1.000000
   25       -0.212242   1.000000
   26       -0.011133   1.000000
   27        0.009287   1.000000
   28        0.108131   1.000000
   29        0.219365   1.000000
   30        1.266275   1.000000
   31        1.353758   1.000000
   32        1.855038   1.000000
   33        1.957094   1.000000
   34        2.192383   0.999999
   35        2.267073   0.999925
   36        2.357494   0.993987
   37        2.394638   0.976488
   38        2.416637   0.953030
   39        2.456772   0.865935
   40        2.513588   0.619389
   41        2.545531   0.441223
   42        2.601592   0.173434
   43        2.873886   0.000001
   44        3.089714   0.000000
   45        3.112724   0.000000
   46        3.257027   0.000000
   47        3.414894   0.000000
   48        3.467282   0.000000
   49        3.936405   0.000000
   50        4.055578   0.000000
   51        4.579369   0.000000
   52        5.016231   0.000000
   53        5.057614   0.000000
   54        5.482539   0.000000
   55        5.800948   0.000000
   56        5.999911   0.000000
 
  0.3333333E+00  0.3333333E+00 -0.4440892E-15  0.4444444E+00
    1      -18.148479   1.000000
    2      -17.124346   1.000000
    3      -15.978031   1.000000
    4      -14.669427   1.000000
    5      -14.261948   1.000000
    6      -13.486453   1.000000
    7       -7.855356   1.000000
    8       -6.758070   1.000000
    9       -6.586193   1.000000
   10       -5.785410   1.000000
   11       -5.423923   1.000000
   12       -5.285891   1.000000
   13       -4.723441   1.000000
   14       -4.305664   1.000000
   15       -3.764647   1.000000
   16       -3.429240   1.000000
   17       -2.801541   1.000000
   18       -2.498486   1.000000
   19       -2.327214   1.000000
   20       -2.206376   1.000000
   21       -1.404185   1.000000
   22       -0.642080   1.000000
   23       -0.450128   1.000000
   24       -0.282399   1.000000
   25       -0.257555   1.000000
   26       -0.188595   1.000000
   27        0.108030   1.000000
   28        0.258383   1.000000
   29        0.460261   1.000000
   30        1.388213   1.000000
   31        1.652168   1.000000
   32        1.817367   1.000000
   33        1.960148   1.000000
   34        2.039862   1.000000
   35        2.265129   0.999933
   36        2.308721   0.999316
   37        2.368349   0.990810
   38        2.432524   0.926511
   39        2.465847   0.836220
   40        2.513751   0.618508
   41        2.534889   0.501052
   42        2.600819   0.176249
   43        2.658274   0.040729
   44        2.751434   0.001107
   45        2.920373   0.000000
   46        3.007613   0.000000
   47        3.196896   0.000000
   48        3.360710   0.000000
   49        3.805452   0.000000
   50        4.021525   0.000000
   51        4.994246   0.000000
   52        5.257542   0.000000
   53        5.460141   0.000000
   54        5.640415   0.000000
   55        5.749991   0.000000
   56        6.233400   0.000000
