 vasp.6.2.1 16May21 (build Dec 23 2021 00:35:04) complex                        
  
 executed on             LinuxIFC date 2023.03.08  11:53:28
 running on  128 total cores
 distrk:  each k-point on  128 cores,    1 groups
 distr:  one band on NCORE=  16 cores,    8 groups


--------------------------------------------------------------------------------------------------------


 INCAR:
   ENCUT = 400.000000
   KSPACING = 0.500000
   SIGMA = 0.100000
   EDIFF = 1.00e-08
   EDIFFG = -1.00e-02
   ALGO = Fast
   GGA = PE
   PREC = Normal
   IBRION = -1
   IDIPOL = 3
   ISIF = 3
   ISMEAR = 0
   ISPIN = 0
   LMAXMIX = 6
   NELM = 150
   NPAR = 8
   NSW = 0
   NWRITE = 1
   DIPOL = 0.2573 0.7427 0.5094
   KGAMMA = .TRUE.
   LASPH = .TRUE.
   LCHARG = .FALSE.
   LDIPOL = .TRUE.
   LWAVE = .FALSE.
   LREAL = AUTO

 POTCAR:    PAW_PBE Na 08Apr2002                  
 POTCAR:    PAW_PBE O 08Apr2002                   
 POTCAR:    PAW_PBE Cl 06Sep2000                  
 POTCAR:    PAW_PBE Na 08Apr2002                  
  local pseudopotential read in
  partial core-charges read in
  partial kinetic energy density read in
  atomic valenz-charges read in
  non local Contribution for L=           0  read in
    real space projection operators read in
  non local Contribution for L=           0  read in
    real space projection operators read in
  non local Contribution for L=           1  read in
    real space projection operators read in
    PAW grid and wavefunctions read in
 
   number of l-projection  operators is LMAX  =           3
   number of lm-projection operators is LMMAX =           5
 
 POTCAR:    PAW_PBE O 08Apr2002                   
  local pseudopotential read in
  partial core-charges read in
  partial kinetic energy density read in
  kinetic energy density of atom read in
  atomic valenz-charges read in
  non local Contribution for L=           0  read in
    real space projection operators read in
  non local Contribution for L=           0  read in
    real space projection operators read in
  non local Contribution for L=           1  read in
    real space projection operators read in
  non local Contribution for L=           1  read in
    real space projection operators read in
    PAW grid and wavefunctions read in
 
   number of l-projection  operators is LMAX  =           4
   number of lm-projection operators is LMMAX =           8
 
 POTCAR:    PAW_PBE Cl 06Sep2000                  
  local pseudopotential read in
  partial core-charges read in
  partial kinetic energy density read in
  atomic valenz-charges read in
  non local Contribution for L=           0  read in
    real space projection operators read in
  non local Contribution for L=           0  read in
    real space projection operators read in
  non local Contribution for L=           1  read in
    real space projection operators read in
  non local Contribution for L=           1  read in
    real space projection operators read in
    PAW grid and wavefunctions read in
 
   number of l-projection  operators is LMAX  =           4
   number of lm-projection operators is LMMAX =           8
 
 Optimization of the real space projectors (new method)

 maximal supplied QI-value         = 17.01
 optimisation between [QCUT,QGAM] = [ 10.20, 20.41] = [ 29.16,116.64] Ry 
 Optimized for a Real-space Cutoff    1.19 Angstroem

   l    n(q)    QCUT    max X(q) W(low)/X(q) W(high)/X(q)  e(spline) 
   0      7    10.205    45.123    0.22E-03    0.82E-03    0.11E-06
   0      7    10.205    12.364    0.17E-03    0.61E-03    0.75E-07
   1      7    10.205     8.302    0.37E-03    0.15E-03    0.27E-07
 Optimization of the real space projectors (new method)

 maximal supplied QI-value         = 24.76
 optimisation between [QCUT,QGAM] = [ 10.15, 20.30] = [ 28.85,115.39] Ry 
 Optimized for a Real-space Cutoff    1.38 Angstroem

   l    n(q)    QCUT    max X(q) W(low)/X(q) W(high)/X(q)  e(spline) 
   0      8    10.150    20.381    0.22E-03    0.32E-03    0.29E-06
   0      8    10.150    15.268    0.23E-03    0.35E-03    0.30E-06
   1      8    10.150     5.964    0.46E-03    0.53E-03    0.21E-06
   1      8    10.150     5.382    0.38E-03    0.45E-03    0.19E-06
 Optimization of the real space projectors (new method)

 maximal supplied QI-value         = 19.84
 optimisation between [QCUT,QGAM] = [ 10.12, 20.44] = [ 28.68,116.96] Ry 
 Optimized for a Real-space Cutoff    1.23 Angstroem

   l    n(q)    QCUT    max X(q) W(low)/X(q) W(high)/X(q)  e(spline) 
   0      7    10.119   168.010    0.54E-04    0.25E-03    0.48E-07
   0      7    10.119   164.674    0.53E-04    0.25E-03    0.47E-07
   1      7    10.119    69.222    0.45E-03    0.63E-03    0.13E-06
   1      7    10.119    56.786    0.45E-03    0.62E-03    0.13E-06
  PAW_PBE Na 08Apr2002                  :
 energy of atom  1       EATOM=   -5.1581
 kinetic energy error for atom=    0.0001 (will be added to EATOM!!)
  PAW_PBE O 08Apr2002                   :
 energy of atom  2       EATOM= -432.3788
 kinetic energy error for atom=    0.1156 (will be added to EATOM!!)
  PAW_PBE Cl 06Sep2000                  :
 energy of atom  3       EATOM= -409.7259
 kinetic energy error for atom=    0.0089 (will be added to EATOM!!)
 
 
 POSCAR: Na  O Cl
  positions in cartesian coordinates
  No initial velocities read in
 exchange correlation table for  LEXCH =        8
   RHO(1)=    0.500       N(1)  =     2000
   RHO(2)=  100.500       N(2)  =     4000
 


--------------------------------------------------------------------------------------------------------


 ion  position               nearest neighbor table
   1  0.500  0.500  0.302-   6 2.23   4 2.23  16 2.23   3 3.15  21 3.15  21 3.15   2 3.15   3 3.15
                             2 3.15   9 3.15
   2  0.000  0.500  0.381-   4 2.23  16 2.23  22 2.23   5 2.23   4 2.23  16 2.23   9 3.15  21 3.15
                             7 3.15   3 3.15  23 3.15   1 3.15   9 3.15  21 3.15   7 3.15   3 3.15
   3  0.500  1.000  0.302-   4 2.23  16 2.23   6 2.23  21 3.15   1 3.15  21 3.15   2 3.15   7 3.15
                             1 3.15   2 3.15   5 3.86   5 3.86
   4  0.500  0.500  0.381-  16 0.00   2 2.23   9 2.23   7 2.23  17 2.23   3 2.23   2 2.23   1 2.23
                             6 3.15  22 3.15   5 3.15  22 3.15   5 3.15   6 3.15  12 3.15
   5  0.000  0.500  0.460-   7 2.23  17 2.23  23 2.23   2 2.23   7 2.23  17 2.23   8 2.23  21 2.23
                            12 3.15   4 3.15  22 3.15   6 3.15  24 3.15  22 3.15  10 3.15  12 3.15
   6  0.500  1.000  0.381-   1 2.23  21 2.23   9 2.23   7 2.23  17 2.23   3 2.23  21 2.23  22 3.15
                             4 3.15  22 3.15   5 3.15  10 3.15   4 3.15   5 3.15   2 3.86   2 3.86
   7  0.500  0.500  0.460-  17 0.00   5 2.23  12 2.23  16 2.23   4 2.23   6 2.23   5 2.23  18 2.23
                            10 2.23   9 3.15  23 3.15   2 3.15  23 3.15   8 3.15  21 3.15   2 3.15
   8  0.000  0.500  0.540-  10 2.23  18 2.23  24 2.23  11 2.23  10 2.23  18 2.23   5 2.23  22 2.23
                            15 3.15  13 3.15  23 3.15   9 3.15  25 3.15  23 3.15   7 3.15  15 3.15
   9  0.500  1.000  0.460-   4 2.23  16 2.23  22 2.23   6 2.23  10 2.23  18 2.23  12 2.23  22 2.23
                             7 3.15   2 3.15  23 3.15   8 3.15   2 3.15  23 3.15  13 3.15   7 3.15
  10  0.500  0.500  0.540-  18 0.00   8 2.23  15 2.23  13 2.23  19 2.23   9 2.23   8 2.23  17 2.23
                             7 2.23  12 3.15  24 3.15  11 3.15  24 3.15   5 3.15  22 3.15  11 3.15
  11  0.000  0.500  0.619-  13 2.23  19 2.23  25 2.23   8 2.23  13 2.23  19 2.23  14 2.23  23 2.23
                            10 3.15  24 3.15  12 3.15  24 3.15  10 3.15  12 3.15  22 3.15  15 3.86
  12  0.500  1.000  0.540-   7 2.23  17 2.23  23 2.23  15 2.23  13 2.23  19 2.23   9 2.23  23 2.23
                            24 3.15  10 3.15   5 3.15  24 3.15  11 3.15   5 3.15  10 3.15  11 3.15
  13  0.500  0.500  0.619-  19 0.00  11 2.23  18 2.23  10 2.23  12 2.23  11 2.23  20 2.23  15 3.15
                            25 3.15   8 3.15  25 3.15  14 3.15  23 3.15   8 3.15   9 3.15  15 3.15
  14  0.000  0.500  0.698-  20 2.23  20 2.23  11 2.23  24 2.23  25 3.15  15 3.15  25 3.15  13 3.15
                            15 3.15  13 3.15  23 3.15  12 3.86  12 3.86
  15  0.500  1.000  0.619-  10 2.23  18 2.23  24 2.23  12 2.23  20 2.23  24 2.23  13 3.15   8 3.15
                            25 3.15  14 3.15   8 3.15  25 3.15  13 3.15  14 3.15  23 3.15   7 3.15
  16  0.500  0.500  0.381-   4 0.00   2 2.23   9 2.23   7 2.23   3 2.23   2 2.23   1 2.23
  17  0.500  0.500  0.460-   7 0.00   5 2.23  12 2.23   4 2.23   6 2.23   5 2.23  10 2.23
  18  0.500  0.500  0.540-  10 0.00   8 2.23  15 2.23  13 2.23   9 2.23   8 2.23   7 2.23
  19  0.500  0.500  0.619-  13 0.00  11 2.23  10 2.23  12 2.23  11 2.23
  20  0.500  0.500  0.698-  14 2.23  15 2.23  14 2.23  13 2.23
  21  0.000  1.000  0.381-   6 2.23  22 2.23   6 2.23   5 2.23   3 3.15   1 3.15   2 3.15   3 3.15
                             1 3.15   7 3.15   2 3.15   7 3.15   9 3.15   9 3.15   8 3.15
  22  0.000  1.000  0.460-   2 2.23   9 2.23  21 2.23  23 2.23   9 2.23   8 2.23   6 3.15   4 3.15
                             5 3.15   6 3.15   4 3.15   5 3.15  10 3.15  10 3.15  12 3.15  11 3.15
  23  0.000  1.000  0.540-   5 2.23  12 2.23  24 2.23  22 2.23  12 2.23  11 2.23   7 3.15   9 3.15
                             8 3.15   7 3.15   2 3.15   8 3.15  13 3.15   9 3.15  15 3.15  13 3.15
  24  0.000  1.000  0.619-   8 2.23  15 2.23  23 2.23  25 2.23  15 2.23  14 2.23  12 3.15  10 3.15
                            11 3.15  12 3.15  10 3.15   5 3.15  11 3.15
  25  0.000  1.000  0.698-  11 2.23  24 2.23  13 3.15  15 3.15  14 3.15  13 3.15   8 3.15  14 3.15
                            15 3.15
 
 -----------------------------------------------------------------------------
|                                                                             |
|           W    W    AA    RRRRR   N    N  II  N    N   GGGG   !!!           |
|           W    W   A  A   R    R  NN   N  II  NN   N  G    G  !!!           |
|           W    W  A    A  R    R  N N  N  II  N N  N  G       !!!           |
|           W WW W  AAAAAA  RRRRR   N  N N  II  N  N N  G  GGG   !            |
|           WW  WW  A    A  R   R   N   NN  II  N   NN  G    G                |
|           W    W  A    A  R    R  N    N  II  N    N   GGGG   !!!           |
|                                                                             |
|     The distance between some ions is very small. Please check the          |
|     nearest-neighbor list in the OUTCAR file.                               |
|     I HOPE YOU KNOW WHAT YOU ARE DOING!                                     |
|                                                                             |
 -----------------------------------------------------------------------------

  LATTYP: Found a simple monoclinic cell.
 ALAT       =     6.3036850495
 B/A-ratio  =     0.7071067812
 C/A-ratio  =     3.1573893228
 COS(beta)  =    -0.0486631761
  
  Lattice vectors:
  
 A1 = (   4.4573784450,  -4.4573784450,   0.0000000000)
 A2 = (  -3.1518425248,  -3.1518425248,   0.0000000000)
 A3 = (  -0.6848699249,   0.6848699249, -19.8796074849)


Analysis of symmetry for initial positions (statically):
=====================================================================
 Subroutine PRICEL returns:
 Original cell was already a primitive cell.
 

 Routine SETGRP: Setting up the symmetry group for a 
 simple monoclinic supercell.


 Subroutine GETGRP returns: Found  2 space group operations
 (whereof  2 operations were pure point group operations)
 out of a pool of  4 trial point group operations.


The static configuration has the point symmetry C_1h.


Analysis of symmetry for dynamics (positions and initial velocities):
=====================================================================
 Subroutine PRICEL returns:
 Original cell was already a primitive cell.
 

 Routine SETGRP: Setting up the symmetry group for a 
 simple monoclinic supercell.


 Subroutine GETGRP returns: Found  2 space group operations
 (whereof  2 operations were pure point group operations)
 out of a pool of  4 trial point group operations.


The dynamic configuration has the point symmetry C_1h.


 Subroutine INISYM returns: Found  2 space group operations
 (whereof  2 operations are pure point group operations),
 and found     1 'primitive' translations


----------------------------------------------------------------------------------------

                                     Primitive cell                                     

  volume of cell :     558.5754

  direct lattice vectors                    reciprocal lattice vectors
    -3.151842525 -3.151842525  0.000000000    -0.158637367 -0.158637367  0.000000000
     4.457378445 -4.457378445  0.000000000     0.112173558 -0.112173558 -0.158637367
    14.057005260-14.057005260 19.879607485     0.000000000  0.000000000  0.050302804

  length of vectors
     4.457378445  6.303685050 28.114010520     0.224347116  0.224347116  0.050302804

  position of ions in fractional coordinates (direct lattice)
     0.500000174  0.499999826  0.301816824
     0.000000100  0.499999826  0.381090095
     0.500000174  0.999999900  0.301816824
     0.500000174  0.499999826  0.381090095
     0.000000100  0.499999826  0.460363365
     0.500000174  0.999999900  0.381090095
     0.500000174  0.499999826  0.460363365
     0.000000100  0.499999826  0.539636635
     0.500000174  0.999999900  0.460363365
     0.500000174  0.499999826  0.539636635
     0.000000100  0.499999826  0.618909905
     0.500000174  0.999999900  0.539636635
     0.500000174  0.499999826  0.618909905
     0.000000100  0.499999826  0.698183176
     0.500000174  0.999999900  0.618909905
     0.500000174  0.499999826  0.381090095
     0.500000174  0.499999826  0.460363365
     0.500000174  0.499999826  0.539636635
     0.500000174  0.499999826  0.618909905
     0.500000174  0.499999826  0.698183176
     0.000000100  0.999999900  0.381090071
     0.000000100  0.999999900  0.460363341
     0.000000100  0.999999900  0.539636612
     0.000000100  0.999999900  0.618909882
     0.000000100  0.999999900  0.698183152

  ion indices of the primitive-cell ions
   primitive index   ion index
                 1           1
                 2           2
                 3           3
                 4           4
                 5           5
                 6           6
                 7           7
                 8           8
                 9           9
                10          10
                11          11
                12          12
                13          13
                14          14
                15          15
                16          16
                17          17
                18          18
                19          19
                20          20
                21          21
                22          22
                23          23
                24          24
                25          25

----------------------------------------------------------------------------------------

 
 -----------------------------------------------------------------------------
|                                                                             |
|           W    W    AA    RRRRR   N    N  II  N    N   GGGG   !!!           |
|           W    W   A  A   R    R  NN   N  II  NN   N  G    G  !!!           |
|           W    W  A    A  R    R  N N  N  II  N N  N  G       !!!           |
|           W WW W  AAAAAA  RRRRR   N  N N  II  N  N N  G  GGG   !            |
|           WW  WW  A    A  R   R   N   NN  II  N   NN  G    G                |
|           W    W  A    A  R    R  N    N  II  N    N   GGGG   !!!           |
|                                                                             |
|     The requested file  could not be found or opened for reading            |
|     k-point information. Automatic k-point generation is used as a          |
|     fallback, which may lead to unwanted results.                           |
|                                                                             |
 -----------------------------------------------------------------------------

 

Automatic generation of k-mesh.
 Grid dimensions derived from KSPACING:
 generate k-points for:    3    3    1

 Generating k-lattice:

  Cartesian coordinates                     Fractional coordinates (reciprocal lattice)
    -0.052879122 -0.052879122  0.000000000     0.333333333  0.000000000  0.000000000
     0.037391186 -0.037391186 -0.052879122     0.000000000  0.333333333  0.000000000
     0.000000000  0.000000000  0.050302804     0.000000000  0.000000000  1.000000000

  Length of vectors
     0.074782372  0.074782372  0.050302804

  Shift w.r.t. Gamma in fractional coordinates (k-lattice)
     0.000000000  0.000000000  0.000000000

 
 Subroutine IBZKPT returns following result:
 ===========================================
 
 Found      4 irreducible k-points:
 
 Following reciprocal coordinates:
            Coordinates               Weight
  0.000000  0.000000  0.000000      1.000000
  0.333333  0.000000  0.000000      2.000000
  0.000000  0.333333 -0.000000      2.000000
  0.333333  0.333333 -0.000000      4.000000
 
 Following cartesian coordinates:
            Coordinates               Weight
  0.000000  0.000000  0.000000      1.000000
 -0.052879 -0.052879  0.000000      2.000000
  0.037391 -0.037391 -0.052879      2.000000
 -0.015488 -0.090270 -0.052879      4.000000
 


--------------------------------------------------------------------------------------------------------




 Dimension of arrays:
   k-points           NKPTS =      4   k-points in BZ     NKDIM =      4   number of bands    NBANDS=     56
   number of dos      NEDOS =    301   number of ions     NIONS =     25
   non local maximal  LDIM  =      4   non local SUM 2l+1 LMDIM =      8
   total plane-waves  NPLWV = 107520
   max r-space proj   IRMAX =   2171   max aug-charges    IRDMAX=   9570
   dimension x,y,z NGX =    24 NGY =   32 NGZ =  140
   dimension x,y,z NGXF=    48 NGYF=   64 NGZF=  280
   support grid    NGXF=    48 NGYF=   64 NGZF=  280
   ions per type =              15   5   5
   NGX,Y,Z   is equivalent  to a cutoff of   8.95,  8.44,  8.28 a.u.
   NGXF,Y,Z  is equivalent  to a cutoff of  17.90, 16.88, 16.56 a.u.

 SYSTEM =  unknown system                          
 POSCAR =  Na  O Cl                                

 Startparameter for this run:
   NWRITE =      1    write-flag & timer
   PREC   = normal    normal or accurate (medium, high low for compatibility)
   ISTART =      0    job   : 0-new  1-cont  2-samecut
   ICHARG =      2    charge: 1-file 2-atom 10-const
   ISPIN  =      1    spin polarized calculation?
   LNONCOLLINEAR =      F non collinear calculations
   LSORBIT =      F    spin-orbit coupling
   INIWAV =      1    electr: 0-lowe 1-rand  2-diag
   LASPH  =      T    aspherical Exc in radial PAW
 Electronic Relaxation 1
   ENCUT  =  400.0 eV  29.40 Ry    5.42 a.u.   7.27 10.28 45.85*2*pi/ulx,y,z
   ENINI  =  400.0     initial cutoff
   ENAUG  =  605.4 eV  augmentation charge cutoff
   NELM   =    150;   NELMIN=  2; NELMDL= -5     # of ELM steps 
   EDIFF  = 0.1E-07   stopping-criterion for ELM
   LREAL  =      T    real-space projection
   NLSPLINE    = F    spline interpolate recip. space projectors
   LCOMPAT=      F    compatible to vasp.4.4
   GGA_COMPAT  = T    GGA compatible to vasp.4.4-vasp.4.6
   LMAXPAW     = -100 max onsite density
   LMAXMIX     =    6 max onsite mixed and CHGCAR
   VOSKOWN=      0    Vosko Wilk Nusair interpolation
   ROPT   =   -0.00050  -0.00050  -0.00050
 Ionic relaxation
   EDIFFG = -.1E-01   stopping-criterion for IOM
   NSW    =      0    number of steps for IOM
   NBLOCK =      1;   KBLOCK =      1    inner block; outer block 
   IBRION =     -1    ionic relax: 0-MD 1-quasi-New 2-CG
   NFREE  =      0    steps in history (QN), initial steepest desc. (CG)
   ISIF   =      3    stress and relaxation
   IWAVPR =     10    prediction:  0-non 1-charg 2-wave 3-comb
   ISYM   =      2    0-nonsym 1-usesym 2-fastsym
   LCORR  =      T    Harris-Foulkes like correction to forces

   POTIM  = 0.5000    time-step for ionic-motion
   TEIN   =    0.0    initial temperature
   TEBEG  =    0.0;   TEEND  =   0.0 temperature during run
   SMASS  =  -3.00    Nose mass-parameter (am)
   estimated Nose-frequenzy (Omega)   =  0.10E-29 period in steps = 0.13E+47 mass=  -0.454E-27a.u.
   SCALEE = 1.0000    scale energy and forces
   NPACO  =    256;   APACO  = 16.0  distance and # of slots for P.C.
   PSTRESS=    0.0 pullay stress

  Mass of Ions in am
   POMASS =  22.99 16.00 35.45
  Ionic Valenz
   ZVAL   =   1.00  6.00  7.00
  Atomic Wigner-Seitz radii
   RWIGS  =  -1.00 -1.00 -1.00
  virtual crystal weights 
   VCA    =   1.00  1.00  1.00
   NELECT =      80.0000    total number of electrons
   NUPDOWN=      -1.0000    fix difference up-down

 DOS related values:
   EMIN   =  10.00;   EMAX   =-10.00  energy-range for DOS
   EFERMI =   0.00
   ISMEAR =     0;   SIGMA  =   0.10  broadening in eV -4-tet -1-fermi 0-gaus

 Electronic relaxation 2 (details)
   IALGO  =     68    algorithm
   LDIAG  =      T    sub-space diagonalisation (order eigenvalues)
   LSUBROT=      F    optimize rotation matrix (better conditioning)
   TURBO    =      0    0=normal 1=particle mesh
   IRESTART =      0    0=no restart 2=restart with 2 vectors
   NREBOOT  =      0    no. of reboots
   NMIN     =      0    reboot dimension
   EREF     =   0.00    reference energy to select bands
   IMIX   =      4    mixing-type and parameters
     AMIX     =   0.40;   BMIX     =  1.00
     AMIX_MAG =   1.60;   BMIX_MAG =  1.00
     AMIN     =   0.10
     WC   =   100.;   INIMIX=   1;  MIXPRE=   1;  MAXMIX= -45

 Intra band minimization:
   WEIMIN = 0.0000     energy-eigenvalue tresh-hold
   EBREAK =  0.45E-10  absolut break condition
   DEPER  =   0.30     relativ break condition  

   TIME   =   0.40     timestep for ELM

  volume/ion in A,a.u.               =      22.34       150.78
  Fermi-wavevector in a.u.,A,eV,Ry     =   0.856533  1.618613  9.981903  0.733649
  Thomas-Fermi vector in A             =   1.973449
 
 Write flags
   LWAVE        =      F    write WAVECAR
   LDOWNSAMPLE  =      F    k-point downsampling of WAVECAR
   LCHARG       =      F    write CHGCAR
   LVTOT        =      F    write LOCPOT, total local potential
   LVHAR        =      F    write LOCPOT, Hartree potential only
   LELF         =      F    write electronic localiz. function (ELF)
   LORBIT       =      0    0 simple, 1 ext, 2 COOP (PROOUT), +10 PAW based schemes


 Dipole corrections
   LMONO  =      F    monopole corrections only (constant potential shift)
   LDIPOL =      T    correct potential (dipole corrections)
   IDIPOL =      3    1-x, 2-y, 3-z, 4-all directions 
   EPSILON=  1.0000000 bulk dielectric constant

 Exchange correlation treatment:
   GGA     =    PE    GGA type
   LEXCH   =     8    internal setting for exchange type
   VOSKOWN=      0    Vosko Wilk Nusair interpolation
   LHFCALC =     F    Hartree Fock is set to
   LHFONE  =     F    Hartree Fock one center treatment
   AEXX    =    0.0000 exact exchange contribution

 Linear response parameters
   LEPSILON=     F    determine dielectric tensor
   LRPA    =     F    only Hartree local field effects (RPA)
   LNABLA  =     F    use nabla operator in PAW spheres
   LVEL    =     F    velocity operator in full k-point grid
   LINTERFAST=   F  fast interpolation
   KINTER  =     0    interpolate to denser k-point grid
   CSHIFT  =0.1000    complex shift for real part using Kramers Kronig
   OMEGAMAX=  -1.0    maximum frequency
   DEG_THRESHOLD= 0.2000000E-02 threshold for treating states as degnerate
   RTIME   =   -0.100 relaxation time in fs
  (WPLASMAI=    0.000 imaginary part of plasma frequency in eV, 0.658/RTIME)
   DFIELD  = 0.0000000 0.0000000 0.0000000 field for delta impulse in time
 
 Orbital magnetization related:
   ORBITALMAG=     F  switch on orbital magnetization
   LCHIMAG   =     F  perturbation theory with respect to B field
   DQ        =  0.001000  dq finite difference perturbation B field
   LLRAUG    =     F  two centre corrections for induced B field



--------------------------------------------------------------------------------------------------------


 Static calculation
 charge density and potential will be updated during run
 non-spin polarized calculation
 RMM-DIIS sequential band-by-band and
  variant of blocked Davidson during initial phase
 perform sub-space diagonalisation
    before iterative eigenvector-optimisation
 modified Broyden-mixing scheme, WC =      100.0
 initial mixing is a Kerker type mixing with AMIX =  0.4000 and BMIX =      1.0000
 Hartree-type preconditioning will be used
 using additional bands           16
 real space projection scheme for non local part
 use partial core corrections
 calculate Harris-corrections to forces 
   (improved forces if not selfconsistent)
 use gradient corrections 
 use of overlap-Matrix (Vanderbilt PP)
 Gauss-broadening in eV      SIGMA  =   0.10


--------------------------------------------------------------------------------------------------------


  energy-cutoff  :      400.00
  volume of cell :      558.58
      direct lattice vectors                 reciprocal lattice vectors
    -3.151842525 -3.151842525  0.000000000    -0.158637367 -0.158637367  0.000000000
     4.457378445 -4.457378445  0.000000000     0.112173558 -0.112173558 -0.158637367
    14.057005260-14.057005260 19.879607485     0.000000000  0.000000000  0.050302804

  length of vectors
     4.457378445  6.303685050 28.114010520     0.224347116  0.224347116  0.050302804


 
 k-points in units of 2pi/SCALE and weight: read from INCAR                         
   0.00000000  0.00000000  0.00000000       0.111
  -0.05287912 -0.05287912  0.00000000       0.222
   0.03739119 -0.03739119 -0.05287912       0.222
  -0.01548794 -0.09027031 -0.05287912       0.444
 
 k-points in reciprocal lattice and weights: read from INCAR                         
   0.00000000  0.00000000  0.00000000       0.111
   0.33333333  0.00000000  0.00000000       0.222
   0.00000000  0.33333333 -0.00000000       0.222
   0.33333333  0.33333333 -0.00000000       0.444
 
 position of ions in fractional coordinates (direct lattice) 
   0.50000017  0.49999983  0.30181682
   0.00000010  0.49999983  0.38109009
   0.50000017  0.99999990  0.30181682
   0.50000017  0.49999983  0.38109009
   0.00000010  0.49999983  0.46036336
   0.50000017  0.99999990  0.38109009
   0.50000017  0.49999983  0.46036336
   0.00000010  0.49999983  0.53963664
   0.50000017  0.99999990  0.46036336
   0.50000017  0.49999983  0.53963664
   0.00000010  0.49999983  0.61890991
   0.50000017  0.99999990  0.53963664
   0.50000017  0.49999983  0.61890991
   0.00000010  0.49999983  0.69818318
   0.50000017  0.99999990  0.61890991
   0.50000017  0.49999983  0.38109009
   0.50000017  0.49999983  0.46036336
   0.50000017  0.49999983  0.53963664
   0.50000017  0.49999983  0.61890991
   0.50000017  0.49999983  0.69818318
   0.00000010  0.99999990  0.38109007
   0.00000010  0.99999990  0.46036334
   0.00000010  0.99999990  0.53963661
   0.00000010  0.99999990  0.61890988
   0.00000010  0.99999990  0.69818315
 
 position of ions in cartesian coordinates  (Angst):
   4.89540732 -8.04725094  6.00000000
   7.58567359 -7.58567422  7.57592150
   7.12409687-10.27594050  6.00000000
   6.00975210 -9.16159572  7.57592150
   8.70001837 -8.70001900  9.15184299
   8.23844165-11.39028528  7.57592150
   7.12409687-10.27594050  9.15184299
   9.81436315 -9.81436378 10.72776449
   9.35278643-12.50463005  9.15184299
   8.23844165-11.39028528 10.72776449
  10.92870793-10.92870856 12.30368599
  10.46713121-13.61897483 10.72776449
   9.35278643-12.50463005 12.30368599
  12.04305270-12.04305333 13.87960748
  11.58147598-14.73331961 12.30368599
   6.00975210 -9.16159572  7.57592150
   7.12409687-10.27594050  9.15184299
   8.23844165-11.39028528 10.72776449
   9.35278643-12.50463005 12.30368599
  10.46713121-13.61897483 13.87960748
   9.81436282 -9.81436345  7.57592103
  10.92870759-10.92870822  9.15184252
  12.04305237-12.04305300 10.72776402
  13.15739715-13.15739778 12.30368552
  14.27174193-14.27174256 13.87960702
 


--------------------------------------------------------------------------------------------------------


 k-point   1 :   0.0000 0.0000 0.0000  plane waves:   10195
 k-point   2 :   0.3333 0.0000 0.0000  plane waves:   10128
 k-point   3 :   0.0000 0.3333-0.0000  plane waves:   10158
 k-point   4 :   0.3333 0.3333-0.0000  plane waves:   10151

 maximum and minimum number of plane-waves per node :       654      610

 maximum number of plane-waves:     10195
 maximum index in each direction: 
   IXMAX=    7   IYMAX=   10   IZMAX=   45
   IXMIN=   -7   IYMIN=  -10   IZMIN=  -45


 real space projection operators:
  total allocation   :       1866.19 KBytes
  max/ min on nodes  :        165.66         83.75


 parallel 3D FFT for wavefunctions:
    minimum data exchange during FFTs selected (reduces bandwidth)
 parallel 3D FFT for charge:
    minimum data exchange during FFTs selected (reduces bandwidth)


 total amount of memory used by VASP MPI-rank0    33750. kBytes
=======================================================================

   base      :      30000. kBytes
   nonlr-proj:       1109. kBytes
   fftplans  :        830. kBytes
   grid      :       1512. kBytes
   one-center:          6. kBytes
   wavefun   :        293. kBytes
 
     INWAV:  cpu time    0.0000: real time    0.0000
 Broyden mixing: mesh for mixing (old mesh)
   NGX = 15   NGY = 21   NGZ = 91
  (NGX  = 48   NGY  = 64   NGZ  =280)
  gives a total of  28665 points

 initial charge density was supplied:
 charge density of overlapping atoms calculated
 number of electron      80.0000000 magnetization 
 keeping initial charge density in first step


--------------------------------------------------------------------------------------------------------


 Maximum index for non-local projection operator          166
 Maximum index for augmentation-charges          567 (set IRDMAX)


--------------------------------------------------------------------------------------------------------


 First call to EWALD:  gamma=   0.215
 Maximum number of real-space cells 5x 5x 1
 Maximum number of reciprocal cells 2x 2x 8

    FEWALD:  cpu time    0.0012: real time    0.0012


--------------------------------------- Iteration      1(   1)  ---------------------------------------


    POTLOK:  cpu time    0.0142: real time    0.0169
    SETDIJ:  cpu time    0.0426: real time    0.0425
     EDDAV:  cpu time    0.1924: real time    0.1999
       DOS:  cpu time    0.0012: real time    0.0017
    --------------------------------------------
      LOOP:  cpu time    0.2504: real time    0.2610

 eigenvalue-minimisations  :   544
 total energy-change (2. order) : 0.2147827E+03  (-0.2993635E+04)
 number of electron      80.0000000 magnetization 
 augmentation part       80.0000000 magnetization 

 DIPCOR: dipole corrections for dipol
 direction  3 min pos     3,
 dipolmoment           0.002391     -0.002391      0.003381 electrons x Angstroem
 Tr[quadrupol]      -504.219426

 energy correction for charged system         0.000000 eV
 dipol+quadrupol energy correction            0.000002 eV
 added-field ion interaction          0.000000 eV  (added to PSCEN)


 Free energy of the ion-electron system (eV)
  ---------------------------------------------------
  alpha Z        PSCENC =        -1.15841289
  Ewald energy   TEWEN  =      8802.57538893
  -Hartree energ DENC   =    -12732.47156218
  -exchange      EXHF   =         0.00000000
  -V(xc)+E(xc)   XCENC  =      -342.62372179
  PAW double counting   =      3957.26736228    -3404.20198495
  entropy T*S    EENTRO =        -0.04160741
  eigenvalues    EBANDS =      -351.83430919
  atomic energy  EATOM  =      4287.27154986
  Solvation  Ediel_sol  =         0.00000000
  ---------------------------------------------------
  free energy    TOTEN  =       214.78270268 eV

  energy without entropy =      214.82431008  energy(sigma->0) =      214.80350638


--------------------------------------------------------------------------------------------------------




--------------------------------------- Iteration      1(   2)  ---------------------------------------


     EDDAV:  cpu time    0.1699: real time    0.1728
       DOS:  cpu time    0.0004: real time    0.0004
    --------------------------------------------
      LOOP:  cpu time    0.1703: real time    0.1732

 eigenvalue-minimisations  :   568
 total energy-change (2. order) :-0.6602882E+03  (-0.6369331E+03)
 number of electron      80.0000000 magnetization 
 augmentation part       80.0000000 magnetization 

 DIPCOR: dipole corrections for dipol
 direction  3 min pos     3,
 dipolmoment           0.002391     -0.002391      0.003381 electrons x Angstroem
 Tr[quadrupol]      -504.219426

 energy correction for charged system         0.000000 eV
 dipol+quadrupol energy correction            0.000002 eV
 added-field ion interaction          0.000000 eV  (added to PSCEN)


 Free energy of the ion-electron system (eV)
  ---------------------------------------------------
  alpha Z        PSCENC =        -1.15841289
  Ewald energy   TEWEN  =      8802.57538893
  -Hartree energ DENC   =    -12732.47156218
  -exchange      EXHF   =         0.00000000
  -V(xc)+E(xc)   XCENC  =      -342.62372179
  PAW double counting   =      3957.26736228    -3404.20198495
  entropy T*S    EENTRO =        -0.01739845
  eigenvalues    EBANDS =     -1012.14674668
  atomic energy  EATOM  =      4287.27154986
  Solvation  Ediel_sol  =         0.00000000
  ---------------------------------------------------
  free energy    TOTEN  =      -445.50552585 eV

  energy without entropy =     -445.48812740  energy(sigma->0) =     -445.49682663


--------------------------------------------------------------------------------------------------------




--------------------------------------- Iteration      1(   3)  ---------------------------------------


     EDDAV:  cpu time    0.2124: real time    0.2140
       DOS:  cpu time    0.0004: real time    0.0004
    --------------------------------------------
      LOOP:  cpu time    0.2128: real time    0.2143

 eigenvalue-minimisations  :   776
 total energy-change (2. order) :-0.1849702E+03  (-0.1756712E+03)
 number of electron      80.0000000 magnetization 
 augmentation part       80.0000000 magnetization 

 DIPCOR: dipole corrections for dipol
 direction  3 min pos     3,
 dipolmoment           0.002391     -0.002391      0.003381 electrons x Angstroem
 Tr[quadrupol]      -504.219426

 energy correction for charged system         0.000000 eV
 dipol+quadrupol energy correction            0.000002 eV
 added-field ion interaction          0.000000 eV  (added to PSCEN)


 Free energy of the ion-electron system (eV)
  ---------------------------------------------------
  alpha Z        PSCENC =        -1.15841289
  Ewald energy   TEWEN  =      8802.57538893
  -Hartree energ DENC   =    -12732.47156218
  -exchange      EXHF   =         0.00000000
  -V(xc)+E(xc)   XCENC  =      -342.62372179
  PAW double counting   =      3957.26736228    -3404.20198495
  entropy T*S    EENTRO =        -0.00081759
  eigenvalues    EBANDS =     -1197.13348799
  atomic energy  EATOM  =      4287.27154986
  Solvation  Ediel_sol  =         0.00000000
  ---------------------------------------------------
  free energy    TOTEN  =      -630.47568630 eV

  energy without entropy =     -630.47486871  energy(sigma->0) =     -630.47527751


--------------------------------------------------------------------------------------------------------




--------------------------------------- Iteration      1(   4)  ---------------------------------------


     EDDAV:  cpu time    0.1676: real time    0.1678
       DOS:  cpu time    0.0004: real time    0.0004
    --------------------------------------------
      LOOP:  cpu time    0.1680: real time    0.1682

 eigenvalue-minimisations  :   568
 total energy-change (2. order) :-0.1228678E+02  (-0.1203165E+02)
 number of electron      80.0000000 magnetization 
 augmentation part       80.0000000 magnetization 

 DIPCOR: dipole corrections for dipol
 direction  3 min pos     3,
 dipolmoment           0.002391     -0.002391      0.003381 electrons x Angstroem
 Tr[quadrupol]      -504.219426

 energy correction for charged system         0.000000 eV
 dipol+quadrupol energy correction            0.000002 eV
 added-field ion interaction          0.000000 eV  (added to PSCEN)


 Free energy of the ion-electron system (eV)
  ---------------------------------------------------
  alpha Z        PSCENC =        -1.15841289
  Ewald energy   TEWEN  =      8802.57538893
  -Hartree energ DENC   =    -12732.47156218
  -exchange      EXHF   =         0.00000000
  -V(xc)+E(xc)   XCENC  =      -342.62372179
  PAW double counting   =      3957.26736228    -3404.20198495
  entropy T*S    EENTRO =        -0.00063435
  eigenvalues    EBANDS =     -1209.42045432
  atomic energy  EATOM  =      4287.27154986
  Solvation  Ediel_sol  =         0.00000000
  ---------------------------------------------------
  free energy    TOTEN  =      -642.76246940 eV

  energy without entropy =     -642.76183504  energy(sigma->0) =     -642.76215222


--------------------------------------------------------------------------------------------------------




--------------------------------------- Iteration      1(   5)  ---------------------------------------


     EDDAV:  cpu time    0.1823: real time    0.1846
       DOS:  cpu time    0.0004: real time    0.0004
    CHARGE:  cpu time    0.0145: real time    0.0154
    MIXING:  cpu time    0.0040: real time    0.0052
    --------------------------------------------
      LOOP:  cpu time    0.2012: real time    0.2056

 eigenvalue-minimisations  :   600
 total energy-change (2. order) :-0.3669985E+00  (-0.3664654E+00)
 number of electron      79.9999934 magnetization 
 augmentation part        7.5457706 magnetization 

 DIPCOR: dipole corrections for dipol
 direction  3 min pos     3,
 dipolmoment           0.002391     -0.002391      0.003381 electrons x Angstroem
 Tr[quadrupol]      -504.219426

 energy correction for charged system         0.000000 eV
 dipol+quadrupol energy correction            0.000002 eV
 added-field ion interaction          0.000000 eV  (added to PSCEN)


 Broyden mixing:
  rms(total) = 0.53575E+02    rms(broyden)= 0.53575E+02
  rms(prec ) = 0.53679E+02
  weight for this iteration     100.00

 Free energy of the ion-electron system (eV)
  ---------------------------------------------------
  alpha Z        PSCENC =        -1.15841289
  Ewald energy   TEWEN  =      8802.57538893
  -Hartree energ DENC   =    -12732.47156218
  -exchange      EXHF   =         0.00000000
  -V(xc)+E(xc)   XCENC  =      -342.62372179
  PAW double counting   =      3957.26736228    -3404.20198495
  entropy T*S    EENTRO =        -0.00057166
  eigenvalues    EBANDS =     -1209.78751553
  atomic energy  EATOM  =      4287.27154986
  Solvation  Ediel_sol  =         0.00000000
  ---------------------------------------------------
  free energy    TOTEN  =      -643.12946791 eV

  energy without entropy =     -643.12889625  energy(sigma->0) =     -643.12918208


--------------------------------------------------------------------------------------------------------




--------------------------------------- Iteration      1(   6)  ---------------------------------------


    POTLOK:  cpu time    0.0114: real time    0.0114
    SETDIJ:  cpu time    0.0497: real time    0.0497
    EDDIAG:  cpu time    0.0646: real time    0.0783
  RMM-DIIS:  cpu time    0.0387: real time    0.0388
    ORTHCH:  cpu time    0.0050: real time    0.0093
       DOS:  cpu time    0.0043: real time    0.0043
    CHARGE:  cpu time    0.0146: real time    0.0146
    MIXING:  cpu time    0.0022: real time    0.0028
    --------------------------------------------
      LOOP:  cpu time    0.1905: real time    0.2092

 eigenvalue-minimisations  :   484
 total energy-change (2. order) : 0.3234499E+03  (-0.2119392E+02)
 number of electron      79.9999966 magnetization 
 augmentation part       -3.0015649 magnetization 

 DIPCOR: dipole corrections for dipol
 direction  3 min pos     3,
 dipolmoment           0.636491     -0.636491      0.900135 electrons x Angstroem
 Tr[quadrupol]      -513.992068

 energy correction for charged system         0.000000 eV
 dipol+quadrupol energy correction            0.131241 eV
 added-field ion interaction          0.000000 eV  (added to PSCEN)


 Broyden mixing:
  rms(total) = 0.22985E+02    rms(broyden)= 0.22985E+02
  rms(prec ) = 0.23594E+02
  weight for this iteration     100.00

 eigenvalues of (default mixing * dielectric matrix)
  average eigenvalue GAMMA=   0.7087
  0.7087

 Free energy of the ion-electron system (eV)
  ---------------------------------------------------
  alpha Z        PSCENC =        -1.02717381
  Ewald energy   TEWEN  =      8802.57538893
  -Hartree energ DENC   =    -13249.53814808
  -exchange      EXHF   =         0.00000000
  -V(xc)+E(xc)   XCENC  =      -320.54581413
  PAW double counting   =   2075987.81235851 -2075525.64033506
  entropy T*S    EENTRO =        -0.00000000
  eigenvalues    EBANDS =      -300.58737906
  atomic energy  EATOM  =      4287.27154986
  Solvation  Ediel_sol  =         0.00000000
  ---------------------------------------------------
  free energy    TOTEN  =      -319.67955285 eV

  energy without entropy =     -319.67955285  energy(sigma->0) =     -319.67955285


--------------------------------------------------------------------------------------------------------




--------------------------------------- Iteration      1(   7)  ---------------------------------------


    POTLOK:  cpu time    0.0130: real time    0.0204
    SETDIJ:  cpu time    0.0447: real time    0.0446
    EDDIAG:  cpu time    0.0414: real time    0.0416
  RMM-DIIS:  cpu time    0.0471: real time    0.0471
    ORTHCH:  cpu time    0.0056: real time    0.0056
       DOS:  cpu time    0.0004: real time    0.0004
    CHARGE:  cpu time    0.0129: real time    0.0129
    MIXING:  cpu time    0.0005: real time    0.0005
    --------------------------------------------
      LOOP:  cpu time    0.1655: real time    0.1731

 eigenvalue-minimisations  :   625
 total energy-change (2. order) :-0.9227584E+02  (-0.2040342E+02)
 number of electron      79.9999922 magnetization 
 augmentation part        5.0575122 magnetization 

 DIPCOR: dipole corrections for dipol
 direction  3 min pos     3,
 dipolmoment           0.286022     -0.286022      0.404497 electrons x Angstroem
 Tr[quadrupol]      -506.359604

 energy correction for charged system         0.000000 eV
 dipol+quadrupol energy correction            0.026502 eV
 added-field ion interaction          0.000000 eV  (added to PSCEN)


 Broyden mixing:
  rms(total) = 0.43547E+02    rms(broyden)= 0.43546E+02
  rms(prec ) = 0.43796E+02
  weight for this iteration     100.00

 eigenvalues of (default mixing * dielectric matrix)
  average eigenvalue GAMMA=   0.9955
  1.6414  0.3497

 Free energy of the ion-electron system (eV)
  ---------------------------------------------------
  alpha Z        PSCENC =        -1.13191242
  Ewald energy   TEWEN  =      8802.57538893
  -Hartree energ DENC   =    -12777.94600019
  -exchange      EXHF   =         0.00000000
  -V(xc)+E(xc)   XCENC  =      -336.43128512
  PAW double counting   =   1131353.00283849 -1130852.79877887
  entropy T*S    EENTRO =        -0.03951519
  eigenvalues    EBANDS =      -886.45767897
  atomic energy  EATOM  =      4287.27154986
  Solvation  Ediel_sol  =         0.00000000
  ---------------------------------------------------
  free energy    TOTEN  =      -411.95539349 eV

  energy without entropy =     -411.91587829  energy(sigma->0) =     -411.93563589


--------------------------------------------------------------------------------------------------------




--------------------------------------- Iteration      1(   8)  ---------------------------------------


    POTLOK:  cpu time    0.0149: real time    0.0149
    SETDIJ:  cpu time    0.0412: real time    0.0414
    EDDIAG:  cpu time    0.0399: real time    0.0410
  RMM-DIIS:  cpu time    0.0457: real time    0.0457
    ORTHCH:  cpu time    0.0051: real time    0.0051
       DOS:  cpu time    0.0005: real time    0.0005
    CHARGE:  cpu time    0.0122: real time    0.0122
    MIXING:  cpu time    0.0005: real time    0.0006
    --------------------------------------------
      LOOP:  cpu time    0.1602: real time    0.1615

 eigenvalue-minimisations  :   616
 total energy-change (2. order) : 0.1251104E+03  (-0.1271306E+02)
 number of electron      79.9999885 magnetization 
 augmentation part        7.3480413 magnetization 

 DIPCOR: dipole corrections for dipol
 direction  3 min pos     3,
 dipolmoment          -0.859380      0.859380     -1.215347 electrons x Angstroem
 Tr[quadrupol]      -516.579279

 energy correction for charged system         0.000000 eV
 dipol+quadrupol energy correction            0.239252 eV
 added-field ion interaction          0.000000 eV  (added to PSCEN)


 Broyden mixing:
  rms(total) = 0.29790E+02    rms(broyden)= 0.29790E+02
  rms(prec ) = 0.30025E+02
  weight for this iteration     100.00

 eigenvalues of (default mixing * dielectric matrix)
  average eigenvalue GAMMA=   0.8645
  1.8790  0.3573  0.3573

 Free energy of the ion-electron system (eV)
  ---------------------------------------------------
  alpha Z        PSCENC =        -0.91916298
  Ewald energy   TEWEN  =      8802.57538893
  -Hartree energ DENC   =    -12849.55872247
  -exchange      EXHF   =         0.00000000
  -V(xc)+E(xc)   XCENC  =      -333.86233302
  PAW double counting   =   2708097.30869498 -2707641.56998440
  entropy T*S    EENTRO =        -0.04635998
  eigenvalues    EBANDS =      -648.04406692
  atomic energy  EATOM  =      4287.27154986
  Solvation  Ediel_sol  =         0.00000000
  ---------------------------------------------------
  free energy    TOTEN  =      -286.84499600 eV

  energy without entropy =     -286.79863602  energy(sigma->0) =     -286.82181601


--------------------------------------------------------------------------------------------------------




--------------------------------------- Iteration      1(   9)  ---------------------------------------


    POTLOK:  cpu time    0.0114: real time    0.0114
    SETDIJ:  cpu time    0.0416: real time    0.0416
    EDDIAG:  cpu time    0.0391: real time    0.0397
  RMM-DIIS:  cpu time    0.0373: real time    0.0373
    ORTHCH:  cpu time    0.0055: real time    0.0055
       DOS:  cpu time    0.0007: real time    0.0007
    CHARGE:  cpu time    0.0116: real time    0.0116
    MIXING:  cpu time    0.0005: real time    0.0005
    --------------------------------------------
      LOOP:  cpu time    0.1476: real time    0.1481

 eigenvalue-minimisations  :   503
 total energy-change (2. order) : 0.1104664E+03  (-0.1620261E+01)
 number of electron      79.9999834 magnetization 
 augmentation part       10.4034467 magnetization 

 DIPCOR: dipole corrections for dipol
 direction  3 min pos     3,
 dipolmoment          -0.245496      0.245496     -0.347184 electrons x Angstroem
 Tr[quadrupol]      -517.807828

 energy correction for charged system         0.000000 eV
 dipol+quadrupol energy correction            0.019524 eV
 added-field ion interaction          0.000000 eV  (added to PSCEN)


 Broyden mixing:
  rms(total) = 0.81628E+01    rms(broyden)= 0.81608E+01
  rms(prec ) = 0.84360E+01
  weight for this iteration     100.00

 eigenvalues of (default mixing * dielectric matrix)
  average eigenvalue GAMMA=   0.6391
  1.3513  0.3341  0.4355  0.4355

 Free energy of the ion-electron system (eV)
  ---------------------------------------------------
  alpha Z        PSCENC =        -1.13889048
  Ewald energy   TEWEN  =      8802.57538893
  -Hartree energ DENC   =    -12977.58016952
  -exchange      EXHF   =         0.00000000
  -V(xc)+E(xc)   XCENC  =      -326.60830517
  PAW double counting   =   3889540.37508617 -3889122.01289457
  entropy T*S    EENTRO =        -0.02987990
  eigenvalues    EBANDS =      -379.23051635
  atomic energy  EATOM  =      4287.27154986
  Solvation  Ediel_sol  =         0.00000000
  ---------------------------------------------------
  free energy    TOTEN  =      -176.37863102 eV

  energy without entropy =     -176.34875112  energy(sigma->0) =     -176.36369107


--------------------------------------------------------------------------------------------------------




--------------------------------------- Iteration      1(  10)  ---------------------------------------


    POTLOK:  cpu time    0.0109: real time    0.0109
    SETDIJ:  cpu time    0.0414: real time    0.0414
    EDDIAG:  cpu time    0.1560: real time    0.1568
  RMM-DIIS:  cpu time    0.0411: real time    0.0413
    ORTHCH:  cpu time    0.0051: real time    0.0051
       DOS:  cpu time    0.0005: real time    0.0005
    CHARGE:  cpu time    0.0123: real time    0.0123
    MIXING:  cpu time    0.0006: real time    0.0006
    --------------------------------------------
      LOOP:  cpu time    0.2679: real time    0.2690

 eigenvalue-minimisations  :   541
 total energy-change (2. order) : 0.2054474E+02  (-0.1110030E+01)
 number of electron      79.9999834 magnetization 
 augmentation part       10.3253046 magnetization 

 DIPCOR: dipole corrections for dipol
 direction  3 min pos     3,
 dipolmoment           0.001499     -0.001499      0.002121 electrons x Angstroem
 Tr[quadrupol]      -516.341552

 energy correction for charged system         0.000000 eV
 dipol+quadrupol energy correction            0.000001 eV
 added-field ion interaction          0.000000 eV  (added to PSCEN)


 Broyden mixing:
  rms(total) = 0.18254E+02    rms(broyden)= 0.18254E+02
  rms(prec ) = 0.18280E+02
  weight for this iteration     100.00

 eigenvalues of (default mixing * dielectric matrix)
  average eigenvalue GAMMA=   0.5221
  1.0288  0.4328  0.4328  0.3580  0.3580

 Free energy of the ion-electron system (eV)
  ---------------------------------------------------
  alpha Z        PSCENC =        -1.15841401
  Ewald energy   TEWEN  =      8802.57538893
  -Hartree energ DENC   =    -13024.28799439
  -exchange      EXHF   =         0.00000000
  -V(xc)+E(xc)   XCENC  =      -325.08464298
  PAW double counting   =   2969587.11806084 -2969173.19823219
  entropy T*S    EENTRO =        -0.04378097
  eigenvalues    EBANDS =      -309.02582796
  atomic energy  EATOM  =      4287.27154986
  Solvation  Ediel_sol  =         0.00000000
  ---------------------------------------------------
  free energy    TOTEN  =      -155.83389286 eV

  energy without entropy =     -155.79011189  energy(sigma->0) =     -155.81200238


--------------------------------------------------------------------------------------------------------




--------------------------------------- Iteration      1(  11)  ---------------------------------------


    POTLOK:  cpu time    0.0112: real time    0.0112
    SETDIJ:  cpu time    0.0414: real time    0.0414
    EDDIAG:  cpu time    0.0396: real time    0.0397
  RMM-DIIS:  cpu time    0.0450: real time    0.0450
    ORTHCH:  cpu time    0.0057: real time    0.0057
       DOS:  cpu time    0.0004: real time    0.0004
    CHARGE:  cpu time    0.0123: real time    0.0123
    MIXING:  cpu time    0.0006: real time    0.0006
    --------------------------------------------
      LOOP:  cpu time    0.1563: real time    0.1563

 eigenvalue-minimisations  :   634
 total energy-change (2. order) : 0.6882627E+00  (-0.3569670E+00)
 number of electron      79.9999846 magnetization 
 augmentation part        9.4745338 magnetization 

 DIPCOR: dipole corrections for dipol
 direction  3 min pos     3,
 dipolmoment           0.038645     -0.038645      0.054652 electrons x Angstroem
 Tr[quadrupol]      -515.714948

 energy correction for charged system         0.000000 eV
 dipol+quadrupol energy correction            0.000484 eV
 added-field ion interaction          0.000000 eV  (added to PSCEN)


 Broyden mixing:
  rms(total) = 0.16983E+02    rms(broyden)= 0.16983E+02
  rms(prec ) = 0.16996E+02
  weight for this iteration     100.00

 eigenvalues of (default mixing * dielectric matrix)
  average eigenvalue GAMMA=   0.5201
  1.1728  0.4747  0.4747  0.3654  0.3654  0.2675

 Free energy of the ion-electron system (eV)
  ---------------------------------------------------
  alpha Z        PSCENC =        -1.15793094
  Ewald energy   TEWEN  =      8802.57538893
  -Hartree energ DENC   =    -13028.15066682
  -exchange      EXHF   =         0.00000000
  -V(xc)+E(xc)   XCENC  =      -325.36753246
  PAW double counting   =   2394317.14802420 -2393904.63330168
  entropy T*S    EENTRO =        -0.06649261
  eigenvalues    EBANDS =      -302.76466861
  atomic energy  EATOM  =      4287.27154986
  Solvation  Ediel_sol  =         0.00000000
  ---------------------------------------------------
  free energy    TOTEN  =      -155.14563013 eV

  energy without entropy =     -155.07913752  energy(sigma->0) =     -155.11238382


--------------------------------------------------------------------------------------------------------




--------------------------------------- Iteration      1(  12)  ---------------------------------------


    POTLOK:  cpu time    0.0110: real time    0.0110
    SETDIJ:  cpu time    0.0414: real time    0.0414
    EDDIAG:  cpu time    0.0406: real time    0.0408
  RMM-DIIS:  cpu time    0.0431: real time    0.0431
    ORTHCH:  cpu time    0.0056: real time    0.0056
       DOS:  cpu time    0.0004: real time    0.0004
    CHARGE:  cpu time    0.0124: real time    0.0124
    MIXING:  cpu time    0.0006: real time    0.0006
    --------------------------------------------
      LOOP:  cpu time    0.1552: real time    0.1553

 eigenvalue-minimisations  :   606
 total energy-change (2. order) :-0.1441780E+01  (-0.4832158E-01)
 number of electron      79.9999863 magnetization 
 augmentation part        8.6630800 magnetization 

 DIPCOR: dipole corrections for dipol
 direction  3 min pos     3,
 dipolmoment          -0.015749      0.015749     -0.022273 electrons x Angstroem
 Tr[quadrupol]      -516.017631

 energy correction for charged system         0.000000 eV
 dipol+quadrupol energy correction            0.000080 eV
 added-field ion interaction          0.000000 eV  (added to PSCEN)


 Broyden mixing:
  rms(total) = 0.17079E+02    rms(broyden)= 0.17079E+02
  rms(prec ) = 0.17111E+02
  weight for this iteration     100.00

 eigenvalues of (default mixing * dielectric matrix)
  average eigenvalue GAMMA=   0.4749
  1.2841  0.3140  0.3140  0.4112  0.4112  0.2949  0.2949

 Free energy of the ion-electron system (eV)
  ---------------------------------------------------
  alpha Z        PSCENC =        -1.15833439
  Ewald energy   TEWEN  =      8802.57538893
  -Hartree energ DENC   =    -13029.13613954
  -exchange      EXHF   =         0.00000000
  -V(xc)+E(xc)   XCENC  =      -325.16766754
  PAW double counting   =   2646232.35171486 -2645817.77255412
  entropy T*S    EENTRO =        -0.05160031
  eigenvalues    EBANDS =      -305.49976784
  atomic energy  EATOM  =      4287.27154986
  Solvation  Ediel_sol  =         0.00000000
  ---------------------------------------------------
  free energy    TOTEN  =      -156.58741008 eV

  energy without entropy =     -156.53580977  energy(sigma->0) =     -156.56160993


--------------------------------------------------------------------------------------------------------




--------------------------------------- Iteration      1(  13)  ---------------------------------------


    POTLOK:  cpu time    0.0115: real time    0.0115
    SETDIJ:  cpu time    0.0416: real time    0.0416
    EDDIAG:  cpu time    0.0394: real time    0.0397
  RMM-DIIS:  cpu time    0.0399: real time    0.0399
    ORTHCH:  cpu time    0.0055: real time    0.0055
       DOS:  cpu time    0.0006: real time    0.0006
    CHARGE:  cpu time    0.0119: real time    0.0118
    MIXING:  cpu time    0.0005: real time    0.0005
    --------------------------------------------
      LOOP:  cpu time    0.1508: real time    0.1511

 eigenvalue-minimisations  :   545
 total energy-change (2. order) :-0.2694510E+01  (-0.2917909E-01)
 number of electron      79.9999870 magnetization 
 augmentation part        7.4510719 magnetization 

 DIPCOR: dipole corrections for dipol
 direction  3 min pos     3,
 dipolmoment           0.025695     -0.025695      0.036338 electrons x Angstroem
 Tr[quadrupol]      -516.090679

 energy correction for charged system         0.000000 eV
 dipol+quadrupol energy correction            0.000214 eV
 added-field ion interaction          0.000000 eV  (added to PSCEN)


 Broyden mixing:
  rms(total) = 0.18269E+02    rms(broyden)= 0.18268E+02
  rms(prec ) = 0.18428E+02
  weight for this iteration     100.00

 eigenvalues of (default mixing * dielectric matrix)
  average eigenvalue GAMMA=   0.4814
  1.4728  0.4624  0.4624  0.4249  0.4249  0.2725  0.2725  0.0591

 Free energy of the ion-electron system (eV)
  ---------------------------------------------------
  alpha Z        PSCENC =        -1.15820085
  Ewald energy   TEWEN  =      8802.57538893
  -Hartree energ DENC   =    -13031.60525526
  -exchange      EXHF   =         0.00000000
  -V(xc)+E(xc)   XCENC  =      -324.98999890
  PAW double counting   =   2588058.55125792 -2587649.14857548
  entropy T*S    EENTRO =        -0.07881505
  eigenvalues    EBANDS =      -300.69927116
  atomic energy  EATOM  =      4287.27154986
  Solvation  Ediel_sol  =         0.00000000
  ---------------------------------------------------
  free energy    TOTEN  =      -159.28191999 eV

  energy without entropy =     -159.20310494  energy(sigma->0) =     -159.24251246


--------------------------------------------------------------------------------------------------------




--------------------------------------- Iteration      1(  14)  ---------------------------------------


    POTLOK:  cpu time    0.0108: real time    0.0109
    SETDIJ:  cpu time    0.0415: real time    0.0416
    EDDIAG:  cpu time    0.0401: real time    0.0409
  RMM-DIIS:  cpu time    0.0514: real time    0.0514
    ORTHCH:  cpu time    0.0051: real time    0.0051
       DOS:  cpu time    0.0005: real time    0.0005
    CHARGE:  cpu time    0.0120: real time    0.0120
    MIXING:  cpu time    0.0007: real time    0.0007
    --------------------------------------------
      LOOP:  cpu time    0.1620: real time    0.1630

 eigenvalue-minimisations  :   649
 total energy-change (2. order) : 0.5231037E+01  (-0.8833537E-01)
 number of electron      79.9999845 magnetization 
 augmentation part        7.4965383 magnetization 

 DIPCOR: dipole corrections for dipol
 direction  3 min pos     3,
 dipolmoment          -0.033909      0.033909     -0.047955 electrons x Angstroem
 Tr[quadrupol]      -516.041822

 energy correction for charged system         0.000000 eV
 dipol+quadrupol energy correction            0.000372 eV
 added-field ion interaction          0.000000 eV  (added to PSCEN)


 Broyden mixing:
  rms(total) = 0.18512E+02    rms(broyden)= 0.18508E+02
  rms(prec ) = 0.18651E+02
  weight for this iteration     100.00

 eigenvalues of (default mixing * dielectric matrix)
  average eigenvalue GAMMA=   0.4598
  1.5340  0.4863  0.4863  0.4070  0.4070  0.3389  0.3389  0.0978  0.0420

 Free energy of the ion-electron system (eV)
  ---------------------------------------------------
  alpha Z        PSCENC =        -1.15804225
  Ewald energy   TEWEN  =      8802.57538893
  -Hartree energ DENC   =    -13027.91489824
  -exchange      EXHF   =         0.00000000
  -V(xc)+E(xc)   XCENC  =      -324.64784229
  PAW double counting   =   2710141.62087529 -2709736.69173529
  entropy T*S    EENTRO =        -0.07190882
  eigenvalues    EBANDS =      -295.03426991
  atomic energy  EATOM  =      4287.27154986
  Solvation  Ediel_sol  =         0.00000000
  ---------------------------------------------------
  free energy    TOTEN  =      -154.05088272 eV

  energy without entropy =     -153.97897390  energy(sigma->0) =     -154.01492831


--------------------------------------------------------------------------------------------------------




--------------------------------------- Iteration      1(  15)  ---------------------------------------


    POTLOK:  cpu time    0.0111: real time    0.0111
    SETDIJ:  cpu time    0.0417: real time    0.0417
    EDDIAG:  cpu time    0.0389: real time    0.0395
  RMM-DIIS:  cpu time    0.0539: real time    0.0539
    ORTHCH:  cpu time    0.0055: real time    0.0055
       DOS:  cpu time    0.0004: real time    0.0004
    CHARGE:  cpu time    0.0120: real time    0.0120
    MIXING:  cpu time    0.0006: real time    0.0006
    --------------------------------------------
      LOOP:  cpu time    0.1639: real time    0.1646

 eigenvalue-minimisations  :   695
 total energy-change (2. order) :-0.4766931E+01  (-0.1144062E+00)
 number of electron      79.9999870 magnetization 
 augmentation part        7.5164557 magnetization 

 DIPCOR: dipole corrections for dipol
 direction  3 min pos     3,
 dipolmoment          -0.025620      0.025620     -0.036232 electrons x Angstroem
 Tr[quadrupol]      -516.579826

 energy correction for charged system         0.000000 eV
 dipol+quadrupol energy correction            0.000213 eV
 added-field ion interaction          0.000000 eV  (added to PSCEN)


 Broyden mixing:
  rms(total) = 0.18815E+02    rms(broyden)= 0.18812E+02
  rms(prec ) = 0.18965E+02
  weight for this iteration     100.00

 eigenvalues of (default mixing * dielectric matrix)
  average eigenvalue GAMMA=   0.4791
  1.5311  0.5657  0.5657  0.5682  0.4912  0.4912  0.3498  0.1412  0.0436  0.0436

 Free energy of the ion-electron system (eV)
  ---------------------------------------------------
  alpha Z        PSCENC =        -1.15820210
  Ewald energy   TEWEN  =      8802.57538893
  -Hartree energ DENC   =    -13027.16568854
  -exchange      EXHF   =         0.00000000
  -V(xc)+E(xc)   XCENC  =      -324.70665646
  PAW double counting   =   2896081.03738442 -2895674.40569606
  entropy T*S    EENTRO =        -0.06510241
  eigenvalues    EBANDS =      -302.20079101
  atomic energy  EATOM  =      4287.27154986
  Solvation  Ediel_sol  =         0.00000000
  ---------------------------------------------------
  free energy    TOTEN  =      -158.81781337 eV

  energy without entropy =     -158.75271096  energy(sigma->0) =     -158.78526217


--------------------------------------------------------------------------------------------------------




--------------------------------------- Iteration      1(  16)  ---------------------------------------


    POTLOK:  cpu time    0.0107: real time    0.0107
    SETDIJ:  cpu time    0.0417: real time    0.0417
    EDDIAG:  cpu time    0.0489: real time    0.0495
  RMM-DIIS:  cpu time    0.0604: real time    0.0604
    ORTHCH:  cpu time    0.0050: real time    0.0050
       DOS:  cpu time    0.0005: real time    0.0005
    CHARGE:  cpu time    0.0123: real time    0.0123
    MIXING:  cpu time    0.0008: real time    0.0008
    --------------------------------------------
      LOOP:  cpu time    0.1804: real time    0.1810

 eigenvalue-minimisations  :   785
 total energy-change (2. order) :-0.8521272E+01  (-0.5975818E+00)
 number of electron      79.9999837 magnetization 
 augmentation part        9.3972303 magnetization 

 DIPCOR: dipole corrections for dipol
 direction  3 min pos     3,
 dipolmoment          -0.101885      0.101885     -0.144087 electrons x Angstroem
 Tr[quadrupol]      -516.982425

 energy correction for charged system         0.000000 eV
 dipol+quadrupol energy correction            0.003363 eV
 added-field ion interaction          0.000000 eV  (added to PSCEN)


 Broyden mixing:
  rms(total) = 0.15034E+02    rms(broyden)= 0.15032E+02
  rms(prec ) = 0.15116E+02
  weight for this iteration     100.00

 eigenvalues of (default mixing * dielectric matrix)
  average eigenvalue GAMMA=   0.4537
  1.6357  0.5606  0.5606  0.5701  0.4930  0.4930  0.3529  0.1351  0.1008  0.0446
  0.0446

 Free energy of the ion-electron system (eV)
  ---------------------------------------------------
  alpha Z        PSCENC =        -1.15505194
  Ewald energy   TEWEN  =      8802.57538893
  -Hartree energ DENC   =    -13004.50809972
  -exchange      EXHF   =         0.00000000
  -V(xc)+E(xc)   XCENC  =      -325.04340393
  PAW double counting   =   3560872.94838691 -3560451.65271601
  entropy T*S    EENTRO =        -0.10141760
  eigenvalues    EBANDS =      -347.67372238
  atomic energy  EATOM  =      4287.27154986
  Solvation  Ediel_sol  =         0.00000000
  ---------------------------------------------------
  free energy    TOTEN  =      -167.33908587 eV

  energy without entropy =     -167.23766828  energy(sigma->0) =     -167.28837707


--------------------------------------------------------------------------------------------------------




--------------------------------------- Iteration      1(  17)  ---------------------------------------


    POTLOK:  cpu time    0.0114: real time    0.0116
    SETDIJ:  cpu time    0.0418: real time    0.0418
    EDDIAG:  cpu time    0.0389: real time    0.0393
  RMM-DIIS:  cpu time    0.0647: real time    0.0664
    ORTHCH:  cpu time    0.0057: real time    0.0106
       DOS:  cpu time    0.0005: real time    0.0047
    CHARGE:  cpu time    0.0209: real time    0.0209
    MIXING:  cpu time    0.0008: real time    0.0008
    --------------------------------------------
      LOOP:  cpu time    0.1848: real time    0.1962

 eigenvalue-minimisations  :   684
 total energy-change (2. order) :-0.2277914E+01  (-0.1229319E+00)
 number of electron      79.9999843 magnetization 
 augmentation part        8.4521477 magnetization 

 DIPCOR: dipole corrections for dipol
 direction  3 min pos     3,
 dipolmoment          -0.138758      0.138758     -0.196234 electrons x Angstroem
 Tr[quadrupol]      -517.104193

 energy correction for charged system         0.000000 eV
 dipol+quadrupol energy correction            0.006237 eV
 added-field ion interaction          0.000000 eV  (added to PSCEN)


 Broyden mixing:
  rms(total) = 0.13599E+02    rms(broyden)= 0.13599E+02
  rms(prec ) = 0.13757E+02
  weight for this iteration     100.00

 eigenvalues of (default mixing * dielectric matrix)
  average eigenvalue GAMMA=   0.5151
  2.0667  0.6400  0.7380  0.4851  0.4851  0.4829  0.4829  0.3228  0.2770  0.1109
  0.0450  0.0450

 Free energy of the ion-electron system (eV)
  ---------------------------------------------------
  alpha Z        PSCENC =        -1.15217736
  Ewald energy   TEWEN  =      8802.57538893
  -Hartree energ DENC   =    -13001.98109582
  -exchange      EXHF   =         0.00000000
  -V(xc)+E(xc)   XCENC  =      -325.06336040
  PAW double counting   =   3725875.38326996 -3725452.40832994
  entropy T*S    EENTRO =        -0.07439927
  eigenvalues    EBANDS =      -354.16784553
  atomic energy  EATOM  =      4287.27154986
  Solvation  Ediel_sol  =         0.00000000
  ---------------------------------------------------
  free energy    TOTEN  =      -169.61699956 eV

  energy without entropy =     -169.54260029  energy(sigma->0) =     -169.57979992


--------------------------------------------------------------------------------------------------------




--------------------------------------- Iteration      1(  18)  ---------------------------------------


    POTLOK:  cpu time    0.0132: real time    0.0221
    SETDIJ:  cpu time    0.0446: real time    0.0446
    EDDIAG:  cpu time    0.0438: real time    0.0444
  RMM-DIIS:  cpu time    0.0615: real time    0.0674
    ORTHCH:  cpu time    0.0053: real time    0.0100
       DOS:  cpu time    0.0011: real time    0.0011
    CHARGE:  cpu time    0.0120: real time    0.0164
    MIXING:  cpu time    0.0008: real time    0.0008
    --------------------------------------------
      LOOP:  cpu time    0.1825: real time    0.2069

 eigenvalue-minimisations  :   855
 total energy-change (2. order) :-0.3774473E+01  (-0.9163127E+00)
 number of electron      79.9999836 magnetization 
 augmentation part       10.4611940 magnetization 

 DIPCOR: dipole corrections for dipol
 direction  3 min pos     3,
 dipolmoment          -0.147497      0.147497     -0.208593 electrons x Angstroem
 Tr[quadrupol]      -518.318279

 energy correction for charged system         0.000000 eV
 dipol+quadrupol energy correction            0.007048 eV
 added-field ion interaction          0.000000 eV  (added to PSCEN)


 Broyden mixing:
  rms(total) = 0.10391E+02    rms(broyden)= 0.10388E+02
  rms(prec ) = 0.10590E+02
  weight for this iteration     100.00

 eigenvalues of (default mixing * dielectric matrix)
  average eigenvalue GAMMA=   0.5473
  2.2604  0.7664  0.4987  0.4987  0.7173  0.7173  0.4433  0.4433  0.3227  0.2463
  0.1105  0.0450  0.0450

 Free energy of the ion-electron system (eV)
  ---------------------------------------------------
  alpha Z        PSCENC =        -1.15136696
  Ewald energy   TEWEN  =      8802.57538893
  -Hartree energ DENC   =    -12993.30569700
  -exchange      EXHF   =         0.00000000
  -V(xc)+E(xc)   XCENC  =      -324.60185617
  PAW double counting   =   4524395.54799324 -4523978.62882145
  entropy T*S    EENTRO =        -0.02710005
  eigenvalues    EBANDS =      -361.07156295
  atomic energy  EATOM  =      4287.27154986
  Solvation  Ediel_sol  =         0.00000000
  ---------------------------------------------------
  free energy    TOTEN  =      -173.39147253 eV

  energy without entropy =     -173.36437248  energy(sigma->0) =     -173.37792251


--------------------------------------------------------------------------------------------------------




--------------------------------------- Iteration      1(  19)  ---------------------------------------


    POTLOK:  cpu time    0.0148: real time    0.0191
    SETDIJ:  cpu time    0.0414: real time    0.0414
    EDDIAG:  cpu time    0.0383: real time    0.0395
  RMM-DIIS:  cpu time    0.0580: real time    0.0583
    ORTHCH:  cpu time    0.0054: real time    0.0054
       DOS:  cpu time    0.0005: real time    0.0005
    CHARGE:  cpu time    0.0121: real time    0.0121
    MIXING:  cpu time    0.0008: real time    0.0008
    --------------------------------------------
      LOOP:  cpu time    0.1713: real time    0.1772

 eigenvalue-minimisations  :   779
 total energy-change (2. order) :-0.2630735E+01  (-0.3826169E+00)
 number of electron      79.9999848 magnetization 
 augmentation part        9.9119679 magnetization 

 DIPCOR: dipole corrections for dipol
 direction  3 min pos     3,
 dipolmoment          -0.099013      0.099013     -0.140026 electrons x Angstroem
 Tr[quadrupol]      -519.035400

 energy correction for charged system         0.000000 eV
 dipol+quadrupol energy correction            0.003176 eV
 added-field ion interaction          0.000000 eV  (added to PSCEN)


 Broyden mixing:
  rms(total) = 0.11056E+02    rms(broyden)= 0.11056E+02
  rms(prec ) = 0.11272E+02
  weight for this iteration     100.00

 eigenvalues of (default mixing * dielectric matrix)
  average eigenvalue GAMMA=   0.5728
  1.7276  0.7918  1.1137  1.1137  0.5343  0.5343  0.5506  0.4292  0.4292  0.3435
  0.2510  0.1106  0.0450  0.0450

 Free energy of the ion-electron system (eV)
  ---------------------------------------------------
  alpha Z        PSCENC =        -1.15523882
  Ewald energy   TEWEN  =      8802.57538893
  -Hartree energ DENC   =    -13009.11115010
  -exchange      EXHF   =         0.00000000
  -V(xc)+E(xc)   XCENC  =      -322.62991508
  PAW double counting   =   6346595.50976794 -6346165.94201108
  entropy T*S    EENTRO =        -0.03427425
  eigenvalues    EBANDS =      -362.50632464
  atomic energy  EATOM  =      4287.27154986
  Solvation  Ediel_sol  =         0.00000000
  ---------------------------------------------------
  free energy    TOTEN  =      -176.02220725 eV

  energy without entropy =     -175.98793299  energy(sigma->0) =     -176.00507012


--------------------------------------------------------------------------------------------------------




--------------------------------------- Iteration      1(  20)  ---------------------------------------


    POTLOK:  cpu time    0.0110: real time    0.0110
    SETDIJ:  cpu time    0.0419: real time    0.0419
    EDDIAG:  cpu time    0.0383: real time    0.0394
  RMM-DIIS:  cpu time    0.0590: real time    0.0590
    ORTHCH:  cpu time    0.0056: real time    0.0056
       DOS:  cpu time    0.0004: real time    0.0004
    CHARGE:  cpu time    0.0117: real time    0.0117
    MIXING:  cpu time    0.0008: real time    0.0008
    --------------------------------------------
      LOOP:  cpu time    0.1688: real time    0.1698

 eigenvalue-minimisations  :   785
 total energy-change (2. order) :-0.6963279E+01  (-0.2608496E+00)
 number of electron      79.9999862 magnetization 
 augmentation part        9.1407000 magnetization 

 DIPCOR: dipole corrections for dipol
 direction  3 min pos     3,
 dipolmoment          -0.047948      0.047948     -0.067808 electrons x Angstroem
 Tr[quadrupol]      -518.046126

 energy correction for charged system         0.000000 eV
 dipol+quadrupol energy correction            0.000745 eV
 added-field ion interaction          0.000000 eV  (added to PSCEN)


 Broyden mixing:
  rms(total) = 0.96235E+01    rms(broyden)= 0.96234E+01
  rms(prec ) = 0.99180E+01
  weight for this iteration     100.00

 eigenvalues of (default mixing * dielectric matrix)
  average eigenvalue GAMMA=   0.5476
  1.4764  1.4764  0.8405  1.1186  0.5303  0.5303  0.4225  0.4225  0.4432  0.3758
  0.2399  0.1107  0.1366  0.0450  0.0450

 Free energy of the ion-electron system (eV)
  ---------------------------------------------------
  alpha Z        PSCENC =        -1.15766997
  Ewald energy   TEWEN  =      8802.57538893
  -Hartree energ DENC   =    -13002.70037498
  -exchange      EXHF   =         0.00000000
  -V(xc)+E(xc)   XCENC  =      -322.19090650
  PAW double counting   =   7520213.96195546 -7519768.85475959
  entropy T*S    EENTRO =        -0.01364899
  eigenvalues    EBANDS =      -391.87702078
  atomic energy  EATOM  =      4287.27154986
  Solvation  Ediel_sol  =         0.00000000
  ---------------------------------------------------
  free energy    TOTEN  =      -182.98548656 eV

  energy without entropy =     -182.97183757  energy(sigma->0) =     -182.97866206


--------------------------------------------------------------------------------------------------------




--------------------------------------- Iteration      1(  21)  ---------------------------------------


    POTLOK:  cpu time    0.0109: real time    0.0109
    SETDIJ:  cpu time    0.0421: real time    0.0421
    EDDIAG:  cpu time    0.0398: real time    0.0398
  RMM-DIIS:  cpu time    0.0483: real time    0.0483
    ORTHCH:  cpu time    0.0132: real time    0.0132
       DOS:  cpu time    0.0004: real time    0.0004
    CHARGE:  cpu time    0.0120: real time    0.0120
    MIXING:  cpu time    0.0009: real time    0.0009
    --------------------------------------------
      LOOP:  cpu time    0.1677: real time    0.1677

 eigenvalue-minimisations  :   622
 total energy-change (2. order) : 0.6873151E+00  (-0.9335037E-02)
 number of electron      79.9999863 magnetization 
 augmentation part        9.0637394 magnetization 

 DIPCOR: dipole corrections for dipol
 direction  3 min pos     3,
 dipolmoment          -0.038924      0.038924     -0.055047 electrons x Angstroem
 Tr[quadrupol]      -518.069236

 energy correction for charged system         0.000000 eV
 dipol+quadrupol energy correction            0.000491 eV
 added-field ion interaction          0.000000 eV  (added to PSCEN)


 Broyden mixing:
  rms(total) = 0.96873E+01    rms(broyden)= 0.96872E+01
  rms(prec ) = 0.99794E+01
  weight for this iteration     100.00

 eigenvalues of (default mixing * dielectric matrix)
  average eigenvalue GAMMA=   0.5442
  1.4061  1.3401  1.3401  0.7293  0.5399  0.5399  0.3570  0.4353  0.4353  0.4246
  0.4246  0.2673  0.2673  0.1106  0.0450  0.0450

 Free energy of the ion-electron system (eV)
  ---------------------------------------------------
  alpha Z        PSCENC =        -1.15792392
  Ewald energy   TEWEN  =      8802.57538893
  -Hartree energ DENC   =    -13005.33026616
  -exchange      EXHF   =         0.00000000
  -V(xc)+E(xc)   XCENC  =      -322.09657186
  PAW double counting   =   7712319.29891114 -7711872.68772574
  entropy T*S    EENTRO =        -0.01386661
  eigenvalues    EBANDS =      -390.15766713
  atomic energy  EATOM  =      4287.27154986
  Solvation  Ediel_sol  =         0.00000000
  ---------------------------------------------------
  free energy    TOTEN  =      -182.29817149 eV

  energy without entropy =     -182.28430488  energy(sigma->0) =     -182.29123818


--------------------------------------------------------------------------------------------------------




--------------------------------------- Iteration      1(  22)  ---------------------------------------


    POTLOK:  cpu time    0.0116: real time    0.0116
    SETDIJ:  cpu time    0.0665: real time    0.0667
    EDDIAG:  cpu time    0.1524: real time    0.2582
  RMM-DIIS:  cpu time    0.0491: real time    0.0491
    ORTHCH:  cpu time    0.0052: real time    0.0052
       DOS:  cpu time    0.0004: real time    0.0004
    CHARGE:  cpu time    0.0122: real time    0.0122
    MIXING:  cpu time    0.0010: real time    0.0010
    --------------------------------------------
      LOOP:  cpu time    0.2984: real time    0.4044

 eigenvalue-minimisations  :   652
 total energy-change (2. order) :-0.3780731E+01  (-0.1966648E-01)
 number of electron      79.9999862 magnetization 
 augmentation part        9.0858061 magnetization 

 DIPCOR: dipole corrections for dipol
 direction  3 min pos     3,
 dipolmoment          -0.085719      0.085719     -0.121225 electrons x Angstroem
 Tr[quadrupol]      -517.655944

 energy correction for charged system         0.000000 eV
 dipol+quadrupol energy correction            0.002380 eV
 added-field ion interaction          0.000000 eV  (added to PSCEN)


 Broyden mixing:
  rms(total) = 0.96503E+01    rms(broyden)= 0.96503E+01
  rms(prec ) = 0.99589E+01
  weight for this iteration     100.00

 eigenvalues of (default mixing * dielectric matrix)
  average eigenvalue GAMMA=   0.5581
  1.4796  1.4796  1.1652  0.7590  0.7590  0.5362  0.5362  0.4738  0.4245  0.4245
  0.3553  0.3206  0.3206  0.2533  0.1106  0.0450  0.0450

 Free energy of the ion-electron system (eV)
  ---------------------------------------------------
  alpha Z        PSCENC =        -1.15603440
  Ewald energy   TEWEN  =      8802.57538893
  -Hartree energ DENC   =    -12993.11311816
  -exchange      EXHF   =         0.00000000
  -V(xc)+E(xc)   XCENC  =      -322.51504372
  PAW double counting   =   7042632.09189387 -7042190.56543488
  entropy T*S    EENTRO =        -0.01158407
  eigenvalues    EBANDS =      -400.65651956
  atomic energy  EATOM  =      4287.27154986
  Solvation  Ediel_sol  =         0.00000000
  ---------------------------------------------------
  free energy    TOTEN  =      -186.07890212 eV

  energy without entropy =     -186.06731805  energy(sigma->0) =     -186.07311008


[...]
     12      -5.0402      2.00000
     13      -4.6588      2.00000
     14      -4.0174      2.00000
     15      -3.7571      2.00000
     16      -3.1570      2.00000
     17      -3.0162      2.00000
     18      -2.8260      2.00000
     19      -2.2499      2.00000
     20      -1.7803      2.00000
     21      -1.5581      2.00000
     22      -0.5772      2.00000
     23      -0.4172      2.00000
     24      -0.2707      2.00000
     25      -0.2111      2.00000
     26      -0.0107      2.00000
     27       0.0666      2.00000
     28       0.2889      2.00000
     29       0.5259      2.00000
     30       1.2491      2.00000
     31       1.8337      2.00000
     32       1.9036      2.00000
     33       1.9310      2.00000
     34       2.2171      1.99999
     35       2.2605      1.99990
     36       2.3243      1.99713
     37       2.3821      1.96947
     38       2.4062      1.93154
     39       2.4359      1.83944
     40       2.4990      1.38985
     41       2.5499      0.83367
     42       2.6075      0.30583
     43       2.6921      0.02636
     44       2.7294      0.00599
     45       2.7485      0.00254
     46       3.0691      0.00000
     47       3.1223      0.00000
     48       3.3880      0.00000
     49       3.8736      0.00000
     50       3.8824      0.00000
     51       4.2799      0.00000
     52       5.0055      0.00000
     53       5.0709      0.00000
     54       5.1138      0.00000
     55       5.7396      0.00000
     56       5.8000      0.00000

 k-point     2 :       0.3333    0.0000    0.0000
  band No.  band energies     occupation 
      1     -18.1850      2.00000
      2     -17.0945      2.00000
      3     -15.9385      2.00000
      4     -14.6742      2.00000
      5     -14.2589      2.00000
      6     -13.5229      2.00000
      7      -7.8531      2.00000
      8      -6.8663      2.00000
      9      -6.2629      2.00000
     10      -5.7088      2.00000
     11      -5.5859      2.00000
     12      -5.4186      2.00000
     13      -4.6089      2.00000
     14      -4.5048      2.00000
     15      -3.7367      2.00000
     16      -3.4323      2.00000
     17      -2.7973      2.00000
     18      -2.4563      2.00000
     19      -2.2262      2.00000
     20      -2.1622      2.00000
     21      -1.5521      2.00000
     22      -0.7644      2.00000
     23      -0.4556      2.00000
     24      -0.2913      2.00000
     25      -0.2480      2.00000
     26      -0.1838      2.00000
     27       0.0987      2.00000
     28       0.2215      2.00000
     29       0.4062      2.00000
     30       1.3469      2.00000
     31       1.5920      2.00000
     32       1.7049      2.00000
     33       1.9880      2.00000
     34       2.0727      2.00000
     35       2.2972      1.99923
     36       2.3209      1.99755
     37       2.3844      1.96686
     38       2.4430      1.80701
     39       2.4797      1.56614
     40       2.5172      1.19974
     41       2.5585      0.74083
     42       2.6351      0.15724
     43       2.7294      0.00599
     44       2.9036      0.00000
     45       2.9878      0.00000
     46       3.1499      0.00000
     47       3.2353      0.00000
     48       3.4949      0.00000
     49       3.7456      0.00000
     50       4.0547      0.00000
     51       5.0962      0.00000
     52       5.3972      0.00000
     53       5.4899      0.00000
     54       5.6948      0.00000
     55       5.7845      0.00000
     56       5.9515      0.00000

 k-point     3 :       0.0000    0.3333   -0.0000
  band No.  band energies     occupation 
      1     -18.2319      2.00000
      2     -17.2065      2.00000
      3     -16.0533      2.00000
      4     -14.7465      2.00000
      5     -14.2954      2.00000
      6     -13.5248      2.00000
      7      -7.8583      2.00000
      8      -6.8100      2.00000
      9      -5.9794      2.00000
     10      -5.4505      2.00000
     11      -5.3407      2.00000
     12      -5.0394      2.00000
     13      -4.4584      2.00000
     14      -4.0169      2.00000
     15      -3.5174      2.00000
     16      -3.1689      2.00000
     17      -2.9497      2.00000
     18      -2.7001      2.00000
     19      -2.3823      2.00000
     20      -1.8112      2.00000
     21      -1.6404      2.00000
     22      -0.9598      2.00000
     23      -0.4579      2.00000
     24      -0.2732      2.00000
     25      -0.2122      2.00000
     26      -0.0111      2.00000
     27       0.0093      2.00000
     28       0.1081      2.00000
     29       0.2194      2.00000
     30       1.2663      2.00000
     31       1.3538      2.00000
     32       1.8550      2.00000
     33       1.9571      2.00000
     34       2.1924      2.00000
     35       2.2671      1.99985
     36       2.3575      1.98797
     37       2.3946      1.95298
     38       2.4166      1.90606
     39       2.4568      1.73187
     40       2.5136      1.23878
     41       2.5455      0.88245
     42       2.6016      0.34687
     43       2.8739      0.00000
     44       3.0897      0.00000
     45       3.1127      0.00000
     46       3.2570      0.00000
     47       3.4149      0.00000
     48       3.4673      0.00000
     49       3.9364      0.00000
     50       4.0556      0.00000
     51       4.5794      0.00000
     52       5.0162      0.00000
     53       5.0576      0.00000
     54       5.4825      0.00000
     55       5.8009      0.00000
     56       5.9999      0.00000

 k-point     4 :       0.3333    0.3333   -0.0000
  band No.  band energies     occupation 
      1     -18.1485      2.00000
      2     -17.1243      2.00000
      3     -15.9780      2.00000
      4     -14.6694      2.00000
      5     -14.2619      2.00000
      6     -13.4865      2.00000
      7      -7.8554      2.00000
      8      -6.7581      2.00000
      9      -6.5862      2.00000
     10      -5.7854      2.00000
     11      -5.4239      2.00000
     12      -5.2859      2.00000
     13      -4.7234      2.00000
     14      -4.3057      2.00000
     15      -3.7646      2.00000
     16      -3.4292      2.00000
     17      -2.8015      2.00000
     18      -2.4985      2.00000
     19      -2.3272      2.00000
     20      -2.2064      2.00000
     21      -1.4042      2.00000
     22      -0.6421      2.00000
     23      -0.4501      2.00000
     24      -0.2824      2.00000
     25      -0.2576      2.00000
     26      -0.1886      2.00000
     27       0.1080      2.00000
     28       0.2584      2.00000
     29       0.4603      2.00000
     30       1.3882      2.00000
     31       1.6522      2.00000
     32       1.8174      2.00000
     33       1.9601      2.00000
     34       2.0399      2.00000
     35       2.2651      1.99987
     36       2.3087      1.99863
     37       2.3683      1.98162
     38       2.4325      1.85302
     39       2.4658      1.67244
     40       2.5138      1.23702
     41       2.5349      1.00210
     42       2.6008      0.35250
     43       2.6583      0.08146
     44       2.7514      0.00221
     45       2.9204      0.00000
     46       3.0076      0.00000
     47       3.1969      0.00000
     48       3.3607      0.00000
     49       3.8055      0.00000
     50       4.0215      0.00000
     51       4.9942      0.00000
     52       5.2575      0.00000
     53       5.4601      0.00000
     54       5.6404      0.00000
     55       5.7500      0.00000
     56       6.2334      0.00000


--------------------------------------------------------------------------------------------------------


 soft charge-density along one line, spin component           1
         0         1         2         3         4         5         6         7         8         9
 total charge-density along one line
 
 pseudopotential strength for first ion, spin component:           1
  1.441   6.472  -0.004   0.011   0.004
  6.472  28.616  -0.013   0.059   0.013
 -0.004  -0.013   5.291  -0.001  -0.003
  0.011   0.059  -0.001   5.293   0.001
  0.004   0.013  -0.003   0.001   5.291
 total augmentation occupancy for first ion, spin component:           1
  1.787   0.011  -0.085   0.206   0.085
  0.011   0.000  -0.001   0.001   0.001
 -0.085  -0.001   0.031  -0.011  -0.007
  0.206   0.001  -0.011   0.047   0.011
  0.085   0.001  -0.007   0.011   0.031


------------------------ aborting loop EDIFF was not reached (unconverged)  ----------------------------


 -----------------------------------------------------------------------------
|                                                                             |
|           W    W    AA    RRRRR   N    N  II  N    N   GGGG   !!!           |
|           W    W   A  A   R    R  NN   N  II  NN   N  G    G  !!!           |
|           W    W  A    A  R    R  N N  N  II  N N  N  G       !!!           |
|           W WW W  AAAAAA  RRRRR   N  N N  II  N  N N  G  GGG   !            |
|           WW  WW  A    A  R   R   N   NN  II  N   NN  G    G                |
|           W    W  A    A  R    R  N    N  II  N    N   GGGG   !!!           |
|                                                                             |
|     The electronic self-consistency was not achieved in the given           |
|     number of steps (NELM). The forces and other quantities evaluated       |
|     might not be reliable so examine the results carefully. If you find     |
|     spurious results, we suggest increasing NELM, if you were close to      |
|     convergence or switching to a different ALGO or adjusting the           |
|     density mixing parameters otherwise.                                    |
|                                                                             |
 -----------------------------------------------------------------------------

    CHARGE:  cpu time    0.0116: real time    0.0116
    FORLOC:  cpu time    0.0012: real time    0.0012
    FORNL :  cpu time    0.0241: real time    0.0258
    STRESS:  cpu time    0.0594: real time    0.0603
    FORCOR:  cpu time    0.0113: real time    0.0120
    FORHAR:  cpu time    0.0037: real time    0.0038
    MIXING:  cpu time    0.0027: real time    0.0027
    OFIELD:  cpu time    0.0005: real time    0.0010

  FORCE on cell =-STRESS in cart. coord.  units (eV):
  Direction    XX          YY          ZZ          XY          YZ          ZX
  --------------------------------------------------------------------------------------
  Alpha Z    -1.15841    -1.15841    -1.15841
  Ewald   11016.32686 11016.32686-13314.01052  -198.24225  -274.33096   274.33093
  Hartree 12472.48871 12472.48867-11422.99234  -141.58699  -185.92008   185.92009
  E(xc)    -340.25766  -340.25766  -338.90937    -0.94952    -1.56122     1.56122
  Local  -24684.94356-24684.94349 23542.70823   338.14612   443.97599  -443.97598
  n-local    80.85896    77.02362    70.06544    14.22573     5.19891    -9.34703
  augment   181.26519   181.26519   182.07059    -1.36911    -0.23763     0.23929
  Kinetic  1426.91838  1426.67659  1425.03379   -10.46347     6.37913    -1.68612
  Fock        0.00000     0.00000     0.00000     0.00000     0.00000     0.00000
  -------------------------------------------------------------------------------------
  Total     149.45992   149.45992   142.80740    -0.24101    -6.77165     6.77170
  in kB     428.70004   428.70004   409.61840    -0.69131   -19.42330    19.42344
  external pressure =      422.34 kB  Pullay stress =        0.00 kB


 VOLUME and BASIS-vectors are now :
 -----------------------------------------------------------------------------
  energy-cutoff  :      400.00
  volume of cell :      558.58
      direct lattice vectors                 reciprocal lattice vectors
    -3.151842525 -3.151842525  0.000000000    -0.158637367 -0.158637367  0.000000000
     4.457378445 -4.457378445  0.000000000     0.112173558 -0.112173558 -0.158637367
    14.057005260-14.057005260 19.879607485     0.000000000  0.000000000  0.050302804

  length of vectors
     4.457378445  6.303685050 28.114010520     0.224347116  0.224347116  0.050302804


 FORCES acting on ions
    electron-ion (+dipol)            ewald-force                    non-local-force                 convergence-correction
 -----------------------------------------------------------------------------------------------
   0.320E+01 -.320E+01 0.129E+03   -.364E+01 0.364E+01 -.129E+03   -.212E+01 0.212E+01 -.506E+01   0.597E+00 -.597E+00 -.386E+00
   -.316E+01 0.316E+01 0.118E+03   0.364E+01 -.364E+01 -.115E+03   0.488E+00 -.488E+00 -.301E+01   -.501E+00 0.501E+00 -.297E+01
   -.305E+01 0.305E+01 0.131E+03   0.364E+01 -.364E+01 -.131E+03   0.172E+01 -.172E+01 -.455E+01   -.600E+00 0.600E+00 -.893E+00
   0.569E+01 -.569E+01 0.118E+03   -.364E+01 0.364E+01 -.112E+03   -.273E+01 0.273E+01 -.696E+01   -.636E+00 0.636E+00 -.329E+01
   0.139E+01 -.139E+01 0.593E+02   -.180E-01 0.180E-01 -.555E+02   0.191E+00 -.191E+00 0.173E+00   -.113E+01 0.113E+01 -.388E+01
   -.511E+01 0.511E+01 0.119E+03   0.364E+01 -.364E+01 -.113E+03   0.996E+00 -.996E+00 -.224E+01   0.634E+00 -.634E+00 -.400E+01
   0.268E+01 -.268E+01 0.602E+02   0.180E-01 -.180E-01 -.537E+02   -.948E+00 0.948E+00 -.260E+01   -.144E+01 0.144E+01 -.441E+01
   -.265E+00 0.265E+00 -.685E+01   -.260E-05 -.210E-04 0.762E+01   -.156E+00 0.156E+00 0.207E+00   0.318E+00 -.318E+00 -.104E+01
   -.278E+01 0.278E+01 0.617E+02   -.180E-01 0.180E-01 -.551E+02   -.344E+00 0.344E+00 0.580E+00   0.144E+01 -.144E+01 -.459E+01
   -.723E+00 0.723E+00 -.804E+01   0.888E-05 0.108E-05 0.798E+01   -.122E+00 0.122E+00 -.585E+00   0.428E+00 -.428E+00 -.937E+00
   -.170E+01 0.170E+01 -.712E+02   0.180E-01 -.180E-01 0.695E+02   0.121E+01 -.121E+01 0.186E+01   0.656E+00 -.656E+00 0.903E+00
   0.814E+00 -.814E+00 -.784E+01   0.444E-05 0.193E-04 0.798E+01   0.191E+00 -.191E+00 0.136E+01   -.422E+00 0.422E+00 -.145E+01
   -.235E+01 0.235E+01 -.749E+02   -.180E-01 0.180E-01 0.699E+02   0.107E+02 -.107E+02 0.245E+02   0.861E+00 -.861E+00 0.126E+01
   0.440E+01 -.440E+01 -.124E+03   -.364E+01 0.364E+01 0.123E+03   -.123E+01 0.123E+01 0.374E+01   0.159E+00 -.159E+00 0.119E+01
   0.855E+00 -.855E+00 -.721E+02   0.180E-01 -.180E-01 0.713E+02   0.308E-01 -.308E-01 0.211E+01   -.857E+00 0.857E+00 0.177E+01
   0.309E+02 -.309E+02 0.699E+03   -.218E+02 0.218E+02 -.671E+03   -.916E+00 0.916E+00 0.249E+00   -.761E+01 0.761E+01 -.246E+02
   0.168E+02 -.168E+02 0.361E+03   0.108E+00 -.108E+00 -.322E+03   0.149E+01 -.149E+01 0.142E+01   -.169E+02 0.169E+02 -.376E+02
   -.460E+01 0.460E+01 -.472E+02   0.533E-04 0.647E-05 0.479E+02   0.744E+00 -.744E+00 0.244E+01   0.412E+01 -.412E+01 -.176E+01
   -.108E+02 0.108E+02 -.434E+03   -.108E+00 0.108E+00 0.419E+03   -.553E+01 0.553E+01 -.987E+01   0.854E+01 -.855E+01 0.126E+02
   -.209E+02 0.209E+02 -.726E+03   0.218E+02 -.218E+02 0.728E+03   -.489E+01 0.489E+01 -.147E+02   0.249E+01 -.249E+01 0.917E+01
   0.202E+02 -.202E+02 0.820E+03   -.254E+02 0.254E+02 -.796E+03   -.397E+00 0.397E+00 -.427E+01   0.471E+01 -.471E+01 -.253E+02
   -.109E+02 0.109E+02 0.409E+03   0.126E+00 -.126E+00 -.379E+03   0.125E+01 -.125E+01 0.182E+01   0.103E+02 -.103E+02 -.305E+02
   0.202E+01 -.202E+01 -.438E+02   -.633E-04 -.580E-05 0.533E+02   0.705E+00 -.705E+00 0.112E+01   -.253E+01 0.253E+01 -.103E+02
   0.532E+01 -.531E+01 -.486E+03   -.126E+00 0.126E+00 0.477E+03   -.304E+00 0.304E+00 -.116E+01   -.550E+01 0.550E+01 0.959E+01
   -.230E+02 0.230E+02 -.858E+03   0.254E+02 -.254E+02 0.850E+03   0.743E+00 -.743E+00 0.205E+01   -.180E+01 0.180E+01 0.109E+02
 -----------------------------------------------------------------------------------------------
   0.493E+01 -.492E+01 0.124E+03   0.355E-14 0.178E-13 0.000E+00   0.715E+00 -.715E+00 -.113E+02   -.467E+01 0.467E+01 -.110E+03
 
 
 POSITION                                       TOTAL-FORCE (eV/Angst)
 -----------------------------------------------------------------------------------
      4.89541     -8.04725      6.00000        -2.005204      2.005204     -6.050223
      7.58567     -7.58567      7.57592         0.427731     -0.427731     -2.966607
      7.12410    -10.27594      6.00000         1.662738     -1.662738     -5.347478
      6.00975     -9.16160      7.57592        -1.350613      1.350613     -4.680954
      8.70002     -8.70002      9.15184         0.392457     -0.392457      0.061220
      8.23844    -11.39029      7.57592         0.120926     -0.120926     -0.615305
      7.12410    -10.27594      9.15184         0.267603     -0.267603     -0.675532
      9.81436     -9.81436     10.72776        -0.141640      0.141640     -0.146513
      9.35279    -12.50463      9.15184        -1.742532      1.742532      2.479384
      8.23844    -11.39029     10.72776        -0.456009      0.456009     -1.666594
     10.92871    -10.92871     12.30369         0.140439     -0.140439      1.018858
     10.46713    -13.61897     10.72776         0.544606     -0.544606     -0.029254
      9.35279    -12.50463     12.30369         9.105282     -9.105282     20.674015
     12.04305    -12.04305     13.87961        -0.341646      0.341646      3.962080
     11.58148    -14.73332     12.30369         0.007436     -0.007436      2.933499
      6.00975     -9.16160      7.57592         0.532526     -0.532526      2.811167
      7.12410    -10.27594      9.15184         1.448885     -1.448885      2.305932
      8.23844    -11.39029     10.72776         0.226558     -0.226558      1.287486
      9.35279    -12.50463     12.30369        -7.914406      7.914406    -12.395750
     10.46713    -13.61897     13.87961        -1.488181      1.488181     -3.092988
      9.81436     -9.81436      7.57592        -0.997856      0.997856     -5.410529
     10.92871    -10.92871      9.15184         0.722204     -0.722204      1.222604
     12.04305    -12.04305     10.72776         0.158612     -0.158612      0.360893
     13.15740    -13.15740     12.30369        -0.649634      0.649634     -0.506605
     14.27174    -14.27174     13.87961         1.329716     -1.329716      4.467193
 -----------------------------------------------------------------------------------
    total drift:                                0.977128     -0.967629      2.065265


--------------------------------------------------------------------------------------------------------



  FREE ENERGIE OF THE ION-ELECTRON SYSTEM (eV)
  ---------------------------------------------------
  free  energy   TOTEN  =      -155.28633936 eV

  energy  without entropy=     -155.07941117  energy(sigma->0) =     -155.18287526
 


--------------------------------------------------------------------------------------------------------


    POTLOK:  cpu time    0.0524: real time    0.0527


--------------------------------------------------------------------------------------------------------


     LOOP+:  cpu time   28.0831: real time   29.2515
    4ORBIT:  cpu time    0.0000: real time    0.0000

 total amount of memory used by VASP MPI-rank0    33750. kBytes
=======================================================================

   base      :      30000. kBytes
   nonlr-proj:       1109. kBytes
   fftplans  :        830. kBytes
   grid      :       1512. kBytes
   one-center:          6. kBytes
   wavefun   :        293. kBytes
 
  
  
 General timing and accounting informations for this job:
 ========================================================
  
                  Total CPU time used (sec):       28.852
                            User time (sec):       27.804
                          System time (sec):        1.047
                         Elapsed time (sec):       30.327
  
                   Maximum memory used (kb):      111964.
                   Average memory used (kb):          N/A
  
                          Minor page faults:       100691
                          Major page faults:            0
                 Voluntary context switches:         2945
