unknown system                          
           1
    -3.151843   -3.151843    0.000000
     4.457378   -4.457378    0.000000
    14.057005  -14.057005   19.879607
   Na   O    Cl
    15     5     5
Direct configuration=     1
   0.50000017  0.49999983  0.30181682
   0.00000010  0.49999983  0.38109009
   0.50000017  0.99999990  0.30181682
   0.50000017  0.49999983  0.38109009
   0.00000010  0.49999983  0.46036336
   0.50000017  0.99999990  0.38109009
   0.50000017  0.49999983  0.46036336
   0.00000010  0.49999983  0.53963664
   0.50000017  0.99999990  0.46036336
   0.50000017  0.49999983  0.53963664
   0.00000010  0.49999983  0.61890991
   0.50000017  0.99999990  0.53963664
   0.50000017  0.49999983  0.61890991
   0.00000010  0.49999983  0.69818318
   0.50000017  0.99999990  0.61890991
   0.50000017  0.49999983  0.38109009
   0.50000017  0.49999983  0.46036336
   0.50000017  0.49999983  0.53963664
   0.50000017  0.49999983  0.61890991
   0.50000017  0.49999983  0.69818318
   0.00000010  0.99999990  0.38109007
   0.00000010  0.99999990  0.46036334
   0.00000010  0.99999990  0.53963661
   0.00000010  0.99999990  0.61890988
   0.00000010  0.99999990  0.69818315
