 vasp.6.2.1 16May21 (build Dec 23 2021 00:35:04) complex                        
  
 executed on             LinuxIFC date 2023.03.28  00:36:59
 running on  120 total cores
 distrk:  each k-point on  120 cores,    1 groups
 distr:  one band on NCORE=  15 cores,    8 groups


--------------------------------------------------------------------------------------------------------


 INCAR:
   AMIN = 0.010000
   ENCUT = 400.000000
   KSPACING = 0.500000
   SIGMA = 0.100000
   EDIFF = 1.00e-08
   EDIFFG = -1.00e-02
   ALGO = Fast
   GGA = PE
   PREC = Normal
   IBRION = -1
   ISIF = 3
   ISMEAR = 0
   ISPIN = 0
   ISYM = 0
   LMAXMIX = 6
   NELM = 150
   NPAR = 8
   NSW = 0
   NWRITE = 1
   KGAMMA = .TRUE.
   LASPH = .TRUE.
   LCHARG = .FALSE.
   LWAVE = .FALSE.
   LREAL = AUTO

 POTCAR:    PAW_PBE Cl 06Sep2000                  
 POTCAR:    PAW_PBE Na 08Apr2002                  
 POTCAR:    PAW_PBE O 08Apr2002                   
 POTCAR:    PAW_PBE Cl 06Sep2000                  
  local pseudopotential read in
  partial core-charges read in
  partial kinetic energy density read in
  atomic valenz-charges read in
  non local Contribution for L=           0  read in
    real space projection operators read in
  non local Contribution for L=           0  read in
    real space projection operators read in
  non local Contribution for L=           1  read in
    real space projection operators read in
  non local Contribution for L=           1  read in
    real space projection operators read in
    PAW grid and wavefunctions read in
 
   number of l-projection  operators is LMAX  =           4
   number of lm-projection operators is LMMAX =           8
 
 POTCAR:    PAW_PBE Na 08Apr2002                  
  local pseudopotential read in
  partial core-charges read in
  partial kinetic energy density read in
  atomic valenz-charges read in
  non local Contribution for L=           0  read in
    real space projection operators read in
  non local Contribution for L=           0  read in
    real space projection operators read in
  non local Contribution for L=           1  read in
    real space projection operators read in
    PAW grid and wavefunctions read in
 
   number of l-projection  operators is LMAX  =           3
   number of lm-projection operators is LMMAX =           5
 
 POTCAR:    PAW_PBE O 08Apr2002                   
  local pseudopotential read in
  partial core-charges read in
  partial kinetic energy density read in
  kinetic energy density of atom read in
  atomic valenz-charges read in
  non local Contribution for L=           0  read in
    real space projection operators read in
  non local Contribution for L=           0  read in
    real space projection operators read in
  non local Contribution for L=           1  read in
    real space projection operators read in
  non local Contribution for L=           1  read in
    real space projection operators read in
    PAW grid and wavefunctions read in
 
   number of l-projection  operators is LMAX  =           4
   number of lm-projection operators is LMMAX =           8
 
 Optimization of the real space projectors (new method)

 maximal supplied QI-value         = 19.84
 optimisation between [QCUT,QGAM] = [ 10.12, 20.44] = [ 28.68,116.96] Ry 
 Optimized for a Real-space Cutoff    1.23 Angstroem

   l    n(q)    QCUT    max X(q) W(low)/X(q) W(high)/X(q)  e(spline) 
   0      7    10.119   168.010    0.54E-04    0.25E-03    0.48E-07
   0      7    10.119   164.674    0.53E-04    0.25E-03    0.47E-07
   1      7    10.119    69.222    0.45E-03    0.63E-03    0.13E-06
   1      7    10.119    56.786    0.45E-03    0.62E-03    0.13E-06
 Optimization of the real space projectors (new method)

 maximal supplied QI-value         = 17.01
 optimisation between [QCUT,QGAM] = [ 10.20, 20.41] = [ 29.16,116.64] Ry 
 Optimized for a Real-space Cutoff    1.19 Angstroem

   l    n(q)    QCUT    max X(q) W(low)/X(q) W(high)/X(q)  e(spline) 
   0      7    10.205    45.123    0.22E-03    0.82E-03    0.11E-06
   0      7    10.205    12.364    0.17E-03    0.61E-03    0.75E-07
   1      7    10.205     8.302    0.37E-03    0.15E-03    0.27E-07
 Optimization of the real space projectors (new method)

 maximal supplied QI-value         = 24.76
 optimisation between [QCUT,QGAM] = [ 10.15, 20.30] = [ 28.85,115.39] Ry 
 Optimized for a Real-space Cutoff    1.38 Angstroem

   l    n(q)    QCUT    max X(q) W(low)/X(q) W(high)/X(q)  e(spline) 
   0      8    10.150    20.381    0.22E-03    0.32E-03    0.29E-06
   0      8    10.150    15.268    0.23E-03    0.35E-03    0.30E-06
   1      8    10.150     5.964    0.46E-03    0.53E-03    0.21E-06
   1      8    10.150     5.382    0.38E-03    0.45E-03    0.19E-06
  PAW_PBE Cl 06Sep2000                  :
 energy of atom  1       EATOM= -409.7259
 kinetic energy error for atom=    0.0089 (will be added to EATOM!!)
  PAW_PBE Na 08Apr2002                  :
 energy of atom  2       EATOM=   -5.1581
 kinetic energy error for atom=    0.0001 (will be added to EATOM!!)
  PAW_PBE O 08Apr2002                   :
 energy of atom  3       EATOM= -432.3788
 kinetic energy error for atom=    0.1156 (will be added to EATOM!!)
 
 
 POSCAR: Cl Na  O
  positions in cartesian coordinates
  No initial velocities read in
 exchange correlation table for  LEXCH =        8
   RHO(1)=    0.500       N(1)  =     2000
   RHO(2)=  100.500       N(2)  =     4000
 


--------------------------------------------------------------------------------------------------------


 ion  position               nearest neighbor table
   1  0.202  0.028  0.085-  81 3.15  33 3.15  66 3.15  90 3.15  67 3.17  34 3.17  89 3.17  77 3.17
                            92 3.18  78 3.18  36 3.21  70 3.21
   2  0.202  0.028  0.187-  93 3.15  69 3.15  35 3.15  83 3.15  92 3.16  78 3.16  73 3.17  38 3.17
                            95 3.18  79 3.18  70 3.18  36 3.18
   3  0.202  0.028  0.289-  96 3.15  85 3.15  72 3.15  37 3.15  38 3.16  73 3.16  76 3.17  40 3.17
                            95 3.17  79 3.17  98 3.19  80 3.19
   4  0.202  0.028  0.390-  76 3.11  40 3.11  98 3.14  80 3.14  87 3.15  99 3.15  39 3.15  75 3.15

   5  0.202  0.278  0.085-  33 3.15  42 3.15  90 3.15 102 3.15  41 3.17 101 3.17  34 3.17  43 3.17
                            36 3.18  46 3.18  44 3.21 104 3.21
   6  0.202  0.278  0.187-  93 3.15 105 3.15  45 3.15  35 3.15  46 3.15  36 3.15 107 3.17  47 3.17
                            49 3.18  38 3.18  44 3.19 104 3.19
   7  0.202  0.278  0.289-  96 3.15 108 3.15  37 3.15  48 3.15 107 3.16  47 3.16 110 3.17  50 3.17
                            49 3.17  38 3.17  52 3.19  40 3.19
   8  0.202  0.278  0.390- 110 3.12  50 3.12 130 3.14  40 3.14  52 3.14 111 3.15  99 3.15  51 3.15
                            39 3.15
   9  0.202  0.528  0.085- 114 3.15 102 3.15  54 3.15  42 3.15  43 3.17  55 3.17 113 3.17  53 3.17
                            56 3.18 116 3.18  46 3.21  58 3.21
  10  0.202  0.528  0.187-  57 3.15 105 3.15 117 3.15  45 3.15  56 3.16 116 3.16  49 3.17  61 3.17
                           119 3.18  59 3.18  46 3.18  58 3.18
  11  0.202  0.528  0.289- 108 3.15 120 3.15  60 3.15  48 3.15  61 3.16  49 3.16  52 3.17  64 3.17
                           119 3.17  59 3.17 122 3.19  62 3.19
  12  0.202  0.528  0.390- 154 3.00  64 3.11  52 3.11 122 3.14  62 3.14 111 3.15 123 3.15  63 3.15
                            51 3.15
  13  0.202  0.778  0.085-  54 3.15  66 3.15 114 3.15  81 3.15  65 3.17 125 3.17  55 3.17  67 3.17
                            58 3.18  70 3.18  68 3.21 126 3.21
  14  0.202  0.778  0.187-  57 3.15 117 3.15  83 3.15  69 3.15  70 3.15  58 3.15 127 3.17  71 3.17
                            73 3.18  61 3.18 126 3.19  68 3.19
  15  0.202  0.778  0.289-  60 3.15  72 3.15 120 3.15  85 3.15  71 3.16 127 3.16  74 3.17 128 3.17
                            61 3.17  73 3.17  64 3.19  76 3.19
  16  0.202  0.778  0.390- 128 3.12  74 3.12  64 3.14  76 3.14  87 3.15 123 3.15  75 3.15  63 3.15

  17  0.702  0.028  0.085-  42 3.15  33 3.15  81 3.15 114 3.15 115 3.17  82 3.17  41 3.17 125 3.17
                           126 3.18  44 3.18  84 3.21 118 3.21
  18  0.702  0.028  0.187-  83 3.15  45 3.15  35 3.15 117 3.15 126 3.16  44 3.16 121 3.17  86 3.17
                            47 3.18 127 3.18  84 3.18 118 3.18
  19  0.702  0.028  0.289-  48 3.15  37 3.15  85 3.15 120 3.15  86 3.16 121 3.16 124 3.17  88 3.17
                           127 3.17  47 3.17  50 3.19 128 3.19
  20  0.702  0.028  0.390- 124 3.11  88 3.11  50 3.14 128 3.14  39 3.15  51 3.15  87 3.15 123 3.15

  21  0.702  0.278  0.085-  81 3.15  90 3.15  42 3.15  54 3.15  89 3.17  53 3.17  82 3.17  91 3.17
                            84 3.18  94 3.18  92 3.21  56 3.21
  22  0.702  0.278  0.187-  83 3.15  45 3.15  57 3.15  93 3.15  94 3.15  84 3.15  59 3.17  95 3.17
                            97 3.18  86 3.18  56 3.19  92 3.19
  23  0.702  0.278  0.289-  85 3.15  96 3.15  48 3.15  60 3.15  95 3.16  59 3.16  98 3.17  62 3.17
                            86 3.17  97 3.17  88 3.19 100 3.19
  24  0.702  0.278  0.390-  62 3.12  98 3.12  88 3.14 100 3.14  63 3.15  51 3.15  99 3.15  87 3.15
                           166 3.32
  25  0.702  0.528  0.085- 102 3.15  54 3.15  90 3.15  66 3.15  91 3.17 103 3.17  65 3.17 101 3.17
                            68 3.18 104 3.18 106 3.21  94 3.21
  26  0.702  0.528  0.187-  69 3.15 105 3.15  93 3.15  57 3.15  68 3.16 104 3.16  97 3.17 109 3.17
                            71 3.18 107 3.18  94 3.18 106 3.18
  27  0.702  0.528  0.289-  60 3.15  72 3.15 108 3.15  96 3.15 109 3.16  97 3.16 100 3.17 112 3.17
                            71 3.17 107 3.17  74 3.19 110 3.19
  28  0.702  0.528  0.390- 100 3.11 112 3.11  74 3.14 110 3.14  63 3.15  75 3.15 111 3.15  99 3.15

  29  0.702  0.778  0.085- 102 3.15 114 3.15  66 3.15  33 3.15 113 3.17  77 3.17 103 3.17 115 3.17
                           106 3.18 118 3.18 116 3.21  78 3.21
  30  0.702  0.778  0.187-  35 3.15  69 3.15 117 3.15 105 3.15 118 3.15 106 3.15  79 3.17 119 3.17
                           121 3.18 109 3.18  78 3.19 116 3.19
  31  0.702  0.778  0.289- 108 3.15 120 3.15  72 3.15  37 3.15 119 3.16  79 3.16 122 3.17  80 3.17
                           109 3.17 121 3.17 112 3.19 124 3.19
  32  0.702  0.778  0.390-  80 3.12 122 3.12 112 3.14 124 3.14  39 3.15  75 3.15 123 3.15 111 3.15
                           214 3.36
  33  0.452  0.028  0.085- 237 2.24 238 2.26   5 3.15   1 3.15  17 3.15  29 3.15  78 3.17  44 3.17
                            36 3.17 118 3.17  41 3.19  77 3.19  34 3.19 115 3.19
  34  0.202  0.153  0.034- 257 2.23 237 2.23  89 3.15  77 3.15 101 3.15  41 3.15   1 3.17   5 3.17
                            90 3.19  33 3.19 139 3.50
  35  0.452  0.028  0.187- 239 2.26 238 2.26  30 3.15  18 3.15   2 3.15   6 3.15  79 3.17  47 3.17
                           118 3.17  36 3.17 121 3.17  38 3.17  44 3.18  78 3.18
  36  0.202  0.154  0.136- 258 2.23 238 2.23  78 3.15  92 3.15  44 3.15 104 3.15   6 3.15  93 3.17
                            90 3.17  35 3.17  33 3.17   5 3.18   2 3.18   1 3.21
  37  0.452  0.028  0.289- 239 2.26 240 2.26  19 3.15   3 3.15   7 3.15  31 3.15  79 3.17  47 3.17
                            38 3.17 121 3.17  80 3.17  50 3.17 124 3.18  40 3.18
  38  0.202  0.153  0.238- 259 2.23 239 2.23  95 3.15  79 3.15 107 3.15  47 3.15   3 3.16  96 3.17
                             2 3.17  37 3.17   7 3.17  93 3.17  35 3.17   6 3.18
  39  0.452  0.028  0.390- 240 2.22 124 3.14  40 3.14  80 3.14  50 3.14  32 3.15  20 3.15   4 3.15
                             8 3.15 214 3.52 130 3.91
  40  0.202  0.152  0.340- 260 2.23 240 2.23   4 3.11  39 3.14   8 3.14  99 3.14  80 3.15  98 3.15
                            50 3.15 110 3.15   3 3.17  96 3.18  37 3.18   7 3.19
  41  0.452  0.153  0.034- 237 2.23 241 2.23  82 3.15 115 3.15  43 3.15  34 3.15   5 3.17  17 3.17
                            33 3.19  42 3.19 151 3.26
  42  0.452  0.278  0.085- 241 2.24 242 2.26  17 3.15  21 3.15   5 3.15   9 3.15  56 3.17  44 3.17
                            84 3.17  46 3.17  43 3.19  82 3.19  41 3.19  53 3.19
  43  0.203  0.403  0.034- 241 2.23 261 2.23 163 3.02  53 3.15 113 3.15  41 3.15 101 3.15   9 3.17
                             5 3.17  42 3.19 102 3.19
  44  0.455  0.152  0.136- 238 2.23 242 2.23 118 3.15  84 3.15  36 3.15  46 3.15  18 3.16  33 3.17
                            42 3.17  35 3.18  45 3.18  17 3.18   6 3.19   5 3.21
  45  0.452  0.278  0.187- 242 2.26 243 2.26  18 3.15  22 3.15   6 3.15  10 3.15  84 3.17  46 3.17
                            49 3.17  86 3.17  47 3.17  59 3.17  56 3.18  44 3.18
  46  0.202  0.402  0.136- 242 2.23 262 2.23 116 3.15  56 3.15 104 3.15  44 3.15   6 3.15  45 3.17
                            42 3.17 105 3.17 102 3.17   5 3.18  10 3.18   9 3.21
  47  0.452  0.153  0.238- 239 2.23 243 2.23  86 3.15 121 3.15  49 3.15  38 3.15   7 3.16  37 3.17
                             6 3.17  35 3.17  19 3.17  48 3.17  45 3.17  18 3.18
  48  0.452  0.278  0.289- 243 2.26 244 2.26  19 3.15   7 3.15  23 3.15  11 3.15  86 3.17  49 3.17
                            47 3.17  59 3.17  50 3.17  62 3.17  88 3.18  52 3.18
  49  0.203  0.403  0.238- 243 2.23 263 2.23  59 3.15 119 3.15  47 3.15 107 3.15  11 3.16  48 3.17
                            10 3.17   7 3.17 108 3.17  45 3.17 105 3.17   6 3.18
  50  0.451  0.154  0.340- 240 2.23 244 2.23   8 3.12  20 3.14  39 3.14  51 3.14 124 3.15  88 3.15
                            40 3.15  52 3.15   7 3.17  48 3.17  37 3.17  19 3.19
  51  0.452  0.278  0.390- 244 2.22 142 3.04  88 3.14  52 3.14  50 3.14  62 3.14  20 3.15  24 3.15
                             8 3.15  12 3.15
  52  0.202  0.404  0.340- 244 2.23 264 2.23  12 3.11 111 3.14   8 3.14  51 3.14 122 3.15  62 3.15
                           110 3.15  50 3.15  11 3.17  48 3.18 108 3.18   7 3.19
  53  0.453  0.403  0.034- 245 2.23 241 2.23 187 3.11  43 3.15  55 3.15  82 3.15  91 3.15  21 3.17
                             9 3.17  54 3.19  42 3.19
  54  0.452  0.528  0.085- 245 2.24 246 2.26  13 3.15  25 3.15   9 3.15  21 3.15  68 3.17  56 3.17
                            58 3.17  94 3.17  65 3.19  53 3.19  55 3.19  91 3.19
  55  0.202  0.653  0.034- 265 2.23 245 2.23 113 3.15  53 3.15 125 3.15  65 3.15   9 3.17  13 3.17
                           114 3.19  54 3.19 199 3.23
  56  0.450  0.405  0.136- 246 2.23 242 2.23  58 3.15  46 3.15  94 3.15  84 3.15  10 3.16  54 3.17
                            42 3.17  45 3.18  57 3.18   9 3.18  22 3.19  21 3.21
  57  0.452  0.528  0.187- 247 2.26 246 2.26  10 3.15  14 3.15  26 3.15  22 3.15  59 3.17  71 3.17
                            94 3.17  58 3.17  61 3.17  97 3.17  68 3.18  56 3.18
  58  0.202  0.654  0.136- 266 2.23 246 2.23  56 3.15 116 3.15  68 3.15 126 3.15  14 3.15 117 3.17
                           114 3.17  57 3.17  54 3.17  13 3.18  10 3.18   9 3.21
  59  0.453  0.403  0.238- 247 2.23 243 2.23  49 3.15  61 3.15  86 3.15  97 3.15  23 3.16  60 3.17
                            57 3.17  22 3.17  11 3.17  48 3.17  45 3.17  10 3.18
  60  0.452  0.528  0.289- 247 2.26 248 2.26  15 3.15  27 3.15  11 3.15  23 3.15  59 3.17  71 3.17
                            61 3.17  97 3.17  74 3.17  62 3.17 100 3.18  64 3.18
  61  0.202  0.653  0.238- 267 2.23 247 2.23 119 3.15  59 3.15 127 3.15  71 3.15  11 3.16 120 3.17
                            15 3.17  10 3.17  60 3.17 117 3.17  57 3.17  14 3.18
  62  0.454  0.402  0.340- 248 2.23 244 2.23  24 3.12  12 3.14  63 3.14  51 3.14  64 3.15  52 3.15
                           100 3.15  88 3.15  23 3.17  48 3.17  60 3.17  11 3.19
  63  0.452  0.528  0.390- 248 2.22 100 3.14  64 3.14  62 3.14  74 3.14  24 3.15  28 3.15  12 3.15
                            16 3.15 178 3.25 154 4.13
  64  0.202  0.652  0.340- 268 2.23 248 2.23  12 3.11  63 3.14  16 3.14 123 3.14  62 3.15 122 3.15
                            74 3.15 128 3.15  11 3.17 120 3.18  60 3.18  15 3.19
  65  0.452  0.653  0.034- 245 2.23 249 2.23 103 3.15  91 3.15  67 3.15  55 3.15  13 3.17  25 3.17
                            54 3.19  66 3.19 223 3.63 199 3.92
  66  0.452  0.778  0.085- 249 2.24 250 2.26  13 3.15   1 3.15  25 3.15  29 3.15  78 3.17  68 3.17
                           106 3.17  70 3.17  67 3.19 103 3.19  65 3.19  77 3.19
  67  0.203  0.903  0.034- 249 2.23 253 2.23  77 3.15  89 3.15  65 3.15 125 3.15   1 3.17  13 3.17
                            66 3.19  81 3.19 139 4.02 223 4.20
  68  0.455  0.652  0.136- 246 2.23 250 2.23  94 3.15 106 3.15  58 3.15  70 3.15  26 3.16  54 3.17
                            66 3.17  57 3.18  25 3.18  69 3.18  14 3.19  13 3.21
  69  0.452  0.778  0.187- 250 2.26 251 2.26  30 3.15  26 3.15   2 3.15  14 3.15  70 3.17 106 3.17
                            73 3.17 109 3.17  79 3.17  71 3.17  78 3.18  68 3.18
  70  0.202  0.902  0.136- 250 2.23 254 2.23  92 3.15  78 3.15 126 3.15  68 3.15  14 3.15  69 3.17
                            66 3.17  83 3.17  81 3.17  13 3.18   2 3.18   1 3.21
  71  0.452  0.653  0.238- 247 2.23 251 2.23 109 3.15  97 3.15  73 3.15  61 3.15  15 3.16  60 3.17
                            57 3.17  14 3.17  27 3.17  72 3.17  69 3.17  26 3.18
  72  0.452  0.778  0.289- 251 2.26 252 2.26  27 3.15  31 3.15  15 3.15   3 3.15 109 3.17  73 3.17
                            71 3.17  79 3.17  80 3.17  74 3.17 112 3.18  76 3.18
  73  0.203  0.903  0.238- 251 2.23 255 2.23  79 3.15  95 3.15  71 3.15 127 3.15   3 3.16  72 3.17
                            15 3.17   2 3.17  85 3.17  69 3.17  83 3.17  14 3.18
  74  0.451  0.654  0.340- 248 2.23 252 2.23  16 3.12  28 3.14  63 3.14  75 3.14 100 3.15 112 3.15
                            64 3.15  76 3.15  15 3.17  72 3.17  60 3.17  27 3.19
  75  0.452  0.778  0.390- 252 2.22 112 3.14  76 3.14  74 3.14  80 3.14  28 3.15  32 3.15  16 3.15
                             4 3.15 190 3.74 214 4.03
  76  0.202  0.904  0.340- 252 2.23 256 2.23   4 3.11  87 3.14  16 3.14  75 3.14  98 3.15  80 3.15
                           128 3.15  74 3.15   3 3.17  72 3.18  85 3.18  15 3.19
  77  0.453  0.903  0.034- 237 2.23 249 2.23  67 3.15  34 3.15 103 3.15 115 3.15  29 3.17   1 3.17
                            33 3.19  66 3.19 139 3.80 223 3.99
  78  0.450  0.905  0.136- 238 2.23 250 2.23  36 3.15  70 3.15 118 3.15 106 3.15   2 3.16  33 3.17
                            66 3.17  35 3.18  69 3.18   1 3.18  30 3.19  29 3.21
  79  0.453  0.903  0.238- 239 2.23 251 2.23  73 3.15  38 3.15 109 3.15 121 3.15  31 3.16  37 3.17
                            30 3.17  35 3.17   3 3.17  72 3.17  69 3.17   2 3.18
  80  0.454  0.902  0.340- 240 2.23 252 2.23  32 3.12   4 3.14  39 3.14  75 3.14  40 3.15  76 3.15
                           124 3.15 112 3.15  31 3.17  72 3.17  37 3.17   3 3.19
  81  0.952  0.028  0.085- 253 2.24 254 2.26  21 3.15   1 3.15  17 3.15  13 3.15  92 3.17 126 3.17
                            84 3.17  70 3.17  89 3.19 125 3.19  82 3.19  67 3.19
  82  0.702  0.153  0.034- 241 2.23 253 2.23  41 3.15 125 3.15  53 3.15  89 3.15  17 3.17  21 3.17
                            42 3.19  81 3.19 175 3.34
  83  0.952  0.028  0.187- 255 2.26 254 2.26  18 3.15  22 3.15   2 3.15  14 3.15 127 3.17  95 3.17
                            70 3.17  84 3.17  86 3.17  73 3.17  92 3.18 126 3.18
  84  0.702  0.154  0.136- 242 2.23 254 2.23 126 3.15  44 3.15  92 3.15  56 3.15  22 3.15  45 3.17
                            42 3.17  83 3.17  81 3.17  21 3.18  18 3.18  17 3.21
  85  0.952  0.028  0.289- 255 2.26 256 2.26  23 3.15   3 3.15  19 3.15  15 3.15 127 3.17  95 3.17
                            86 3.17  73 3.17  98 3.17 128 3.17  76 3.18  88 3.18
  86  0.702  0.153  0.238- 243 2.23 255 2.23  47 3.15 127 3.15  59 3.15  95 3.15  19 3.16  48 3.17
                            23 3.17  18 3.17  85 3.17  45 3.17  83 3.17  22 3.18
  87  0.952  0.028  0.390- 256 2.22  76 3.14  88 3.14 128 3.14  98 3.14  16 3.15   4 3.15  20 3.15
                            24 3.15 190 3.67 166 4.06
  88  0.702  0.152  0.340- 244 2.23 256 2.23  20 3.11  87 3.14  24 3.14  51 3.14 128 3.15  50 3.15
                            98 3.15  62 3.15  19 3.17  48 3.18  85 3.18  23 3.19
  89  0.952  0.153  0.034- 253 2.23 257 2.23  34 3.15  67 3.15  91 3.15  82 3.15  21 3.17   1 3.17
                            81 3.19  90 3.19 139 3.74 175 4.00
  90  0.952  0.278  0.085- 257 2.24 258 2.26  21 3.15  25 3.15   1 3.15   5 3.15 104 3.17  92 3.17
                            36 3.17  94 3.17  91 3.19  34 3.19  89 3.19 101 3.19
  91  0.703  0.403  0.034- 257 2.23 245 2.23 101 3.15  65 3.15  89 3.15  53 3.15  25 3.17  21 3.17
                            90 3.19  54 3.19 211 3.53 187 3.82
  92  0.955  0.152  0.136- 254 2.23 258 2.23  70 3.15  36 3.15  84 3.15  94 3.15   2 3.16  81 3.17
                            90 3.17  83 3.18  93 3.18   1 3.18  22 3.19  21 3.21
  93  0.952  0.278  0.187- 258 2.26 259 2.26   6 3.15   2 3.15  26 3.15  22 3.15  94 3.17  36 3.17
                            38 3.17  97 3.17  95 3.17 107 3.17 104 3.18  92 3.18
  94  0.702  0.402  0.136- 258 2.23 246 2.23  68 3.15 104 3.15  56 3.15  92 3.15  22 3.15  93 3.17
                            90 3.17  57 3.17  54 3.17  21 3.18  26 3.18  25 3.21
  95  0.952  0.153  0.238- 255 2.23 259 2.23  38 3.15  73 3.15  97 3.15  86 3.15  23 3.16  85 3.17
                            83 3.17  22 3.17   3 3.17  96 3.17  93 3.17   2 3.18
  96  0.952  0.278  0.289- 259 2.26 260 2.26   7 3.15   3 3.15  23 3.15  27 3.15  38 3.17  97 3.17
                            95 3.17 107 3.17  98 3.17 110 3.17  40 3.18 100 3.18
  97  0.703  0.403  0.238- 259 2.23 247 2.23 107 3.15  71 3.15  95 3.15  59 3.15  27 3.16  96 3.17
                            23 3.17  26 3.17  60 3.17  93 3.17  57 3.17  22 3.18
  98  0.951  0.154  0.340- 256 2.23 260 2.23  24 3.12   4 3.14  87 3.14  99 3.14  76 3.15  40 3.15
                            88 3.15 100 3.15  23 3.17  96 3.17  85 3.17   3 3.19
  99  0.952  0.278  0.390- 260 2.22  40 3.14 100 3.14  98 3.14 110 3.14   4 3.15   8 3.15  24 3.15
                            28 3.15 166 3.53 130 3.84
 100  0.702  0.404  0.340- 260 2.23 248 2.23  28 3.11  63 3.14  24 3.14  99 3.14  74 3.15 110 3.15
                            62 3.15  98 3.15  27 3.17  96 3.18  60 3.18  23 3.19
 101  0.953  0.403  0.034- 261 2.23 257 2.23  91 3.15 103 3.15  34 3.15  43 3.15   5 3.17  25 3.17
                           102 3.19  90 3.19 211 3.28 163 4.18
 102  0.952  0.528  0.085- 261 2.24 262 2.26  29 3.15  25 3.15   9 3.15   5 3.15 104 3.17 116 3.17
                           106 3.17  46 3.17 113 3.19 101 3.19 103 3.19  43 3.19
 103  0.702  0.653  0.034- 249 2.23 261 2.23  65 3.15 101 3.15  77 3.15 113 3.15  25 3.17  29 3.17
                            66 3.19 102 3.19 223 3.38
 104  0.950  0.405  0.136- 262 2.23 258 2.23 106 3.15  94 3.15  46 3.15  36 3.15  26 3.16 102 3.17
                            90 3.17 105 3.18  93 3.18  25 3.18   6 3.19   5 3.21
 105  0.952  0.528  0.187- 263 2.26 262 2.26   6 3.15  10 3.15  26 3.15  30 3.15 107 3.17 119 3.17
                            46 3.17 106 3.17  49 3.17 109 3.17 116 3.18 104 3.18
 106  0.702  0.654  0.136- 250 2.23 262 2.23 104 3.15  68 3.15 116 3.15  78 3.15  30 3.15  69 3.17
                            66 3.17 105 3.17 102 3.17  29 3.18  26 3.18  25 3.21
 107  0.953  0.403  0.238- 263 2.23 259 2.23  97 3.15 109 3.15  38 3.15  49 3.15   7 3.16 108 3.17
                           105 3.17   6 3.17  27 3.17  96 3.17  93 3.17  26 3.18
 108  0.952  0.528  0.289- 263 2.26 264 2.26  31 3.15  11 3.15   7 3.15  27 3.15 107 3.17 119 3.17
                           109 3.17  49 3.17 122 3.17 110 3.17  52 3.18 112 3.18
 109  0.702  0.653  0.238- 251 2.23 263 2.23  71 3.15 107 3.15  79 3.15 119 3.15  27 3.16  72 3.17
                            31 3.17  26 3.17 108 3.17  69 3.17 105 3.17  30 3.18
 110  0.954  0.402  0.340- 264 2.23 260 2.23   8 3.12  28 3.14 111 3.14  99 3.14 112 3.15 100 3.15
                            52 3.15  40 3.15   7 3.17  96 3.17 108 3.17  27 3.19
 111  0.952  0.528  0.390- 264 2.22 202 3.07  52 3.14 112 3.14 110 3.14 122 3.14   8 3.15  12 3.15
                            28 3.15  32 3.15
 112  0.702  0.652  0.340- 252 2.23 264 2.23  28 3.11 111 3.14  32 3.14  75 3.14 110 3.15  74 3.15
                           122 3.15  80 3.15  27 3.17  72 3.18 108 3.18  31 3.19
 113  0.952  0.653  0.034- 261 2.23 265 2.23 235 3.14  55 3.15  43 3.15 115 3.15 103 3.15  29 3.17
                             9 3.17 102 3.19 114 3.19
 114  0.952  0.778  0.085- 265 2.24 266 2.26   9 3.15  13 3.15  29 3.15  17 3.15 126 3.17 116 3.17
                            58 3.17 118 3.17 115 3.19  55 3.19 113 3.19 125 3.19
 115  0.703  0.903  0.034- 265 2.23 237 2.23 125 3.15  41 3.15 113 3.15  77 3.15  17 3.17  29 3.17
                           114 3.19  33 3.19 151 3.57 235 3.77
 116  0.955  0.652  0.136- 262 2.23 266 2.23  46 3.15  58 3.15 106 3.15 118 3.15  10 3.16 102 3.17
                           114 3.17 105 3.18 117 3.18   9 3.18  30 3.19  29 3.21
 117  0.952  0.778  0.187- 266 2.26 267 2.26  30 3.15  10 3.15  18 3.15  14 3.15 118 3.17  58 3.17
                           121 3.17  61 3.17 119 3.17 127 3.17 126 3.18 116 3.18
 118  0.702  0.902  0.136- 266 2.23 238 2.23  44 3.15 126 3.15  78 3.15 116 3.15  30 3.15 117 3.17
                           114 3.17  35 3.17  33 3.17  29 3.18  18 3.18  17 3.21
 119  0.952  0.653  0.238- 263 2.23 267 2.23  61 3.15  49 3.15 121 3.15 109 3.15  31 3.16 108 3.17
                            30 3.17 105 3.17  11 3.17 120 3.17 117 3.17  10 3.18
 120  0.952  0.778  0.289- 267 2.26 268 2.26  31 3.15  11 3.15  19 3.15  15 3.15  61 3.17 121 3.17
                           119 3.17 127 3.17 122 3.17 128 3.17 124 3.18  64 3.18
 121  0.703  0.903  0.238- 267 2.23 239 2.23 127 3.15  47 3.15 119 3.15  79 3.15  19 3.16 120 3.17
                            18 3.17  31 3.17  37 3.17 117 3.17  35 3.17  30 3.18
 122  0.951  0.654  0.340- 264 2.23 268 2.23  32 3.12  12 3.14 111 3.14 123 3.14  52 3.15  64 3.15
                           112 3.15 124 3.15  31 3.17 120 3.17 108 3.17  11 3.19
 123  0.952  0.778  0.390- 268 2.22  64 3.14 124 3.14 122 3.14 128 3.14  12 3.15  16 3.15  32 3.15
                            20 3.15 226 3.28 154 4.07
 124  0.702  0.904  0.340- 268 2.23 240 2.23  20 3.11  39 3.14  32 3.14 123 3.14  50 3.15 128 3.15
                            80 3.15 122 3.15  19 3.17 120 3.18  37 3.18  31 3.19
 125  0.953  0.903  0.034- 253 2.23 265 2.23 115 3.15  82 3.15  55 3.15  67 3.15  13 3.17  17 3.17
                            81 3.19 114 3.19 175 3.66 199 3.85
 126  0.950  0.905  0.136- 254 2.23 266 2.23  84 3.15 118 3.15  70 3.15  58 3.15  18 3.16  81 3.17
                           114 3.17 117 3.18  83 3.18  17 3.18  14 3.19  13 3.21
 127  0.953  0.903  0.238- 255 2.23 267 2.23 121 3.15  86 3.15  61 3.15  73 3.15  15 3.16  85 3.17
                            83 3.17  14 3.17  19 3.17 120 3.17 117 3.17  18 3.18
 128  0.954  0.902  0.340- 256 2.23 268 2.23  16 3.12  20 3.14  87 3.14 123 3.14  88 3.15 124 3.15
                            76 3.15  64 3.15  15 3.17 120 3.17  85 3.17  19 3.19
 129  0.197  0.056  0.502- 132 3.56 192 3.56 190 3.58 216 3.58 168 3.58 214 3.59 130 3.59 166 3.59
                           131 4.09 165 4.18 141 4.18 213 4.21 201 4.21
 130  0.196  0.223  0.457-   8 3.14 153 3.58 201 3.58 141 3.59 129 3.59  99 3.84  39 3.91 132 3.97
                           142 4.19 166 4.20 202 4.21 214 4.22
 131  0.197  0.056  0.594- 218 3.63 170 3.63 134 3.64 194 3.64 168 3.65 216 3.65 192 3.65 132 3.65
                           129 4.09 133 4.16 143 4.17 167 4.17 215 4.21 203 4.21
 132  0.197  0.222  0.546- 141 3.55 201 3.55 129 3.56 153 3.56 143 3.65 203 3.65 131 3.65 155 3.65
                           130 3.97 144 4.18 168 4.19
 133  0.196  0.056  0.688- 134 3.61 194 3.61 170 3.62 218 3.62 196 3.62 136 3.62 220 3.64 172 3.64
                           135 4.13 131 4.16 145 4.18 169 4.18
 134  0.196  0.223  0.642- 205 3.60 145 3.60 157 3.61 133 3.61 203 3.63 143 3.63 155 3.64 131 3.64
                           136 4.13 146 4.18 170 4.18 206 4.22 218 4.22
 135  0.196  0.056  0.781- 172 3.60 220 3.61 196 3.61 136 3.61 174 3.63 222 3.63 198 3.64 138 3.64
                           133 4.13 147 4.18 171 4.18 207 4.21
 136  0.196  0.223  0.735- 135 3.61 159 3.61 147 3.61 207 3.62 133 3.62 157 3.62 205 3.63 145 3.64
                           134 4.13 138 4.16 148 4.18 172 4.18
 137  0.196  0.056  0.877- 224 3.55 176 3.55 140 3.56 200 3.56 174 3.65 198 3.65 222 3.65 138 3.65
                           139 3.96 149 4.18 173 4.19
 138  0.196  0.223  0.829- 147 3.63 207 3.63 159 3.64 209 3.64 149 3.64 135 3.64 161 3.65 137 3.65
                           140 4.09 136 4.16 150 4.17 174 4.18 210 4.21 222 4.21
 139  0.196  0.056  0.966-  34 3.50 140 3.58 176 3.58 200 3.58 224 3.58  89 3.74  77 3.80 137 3.96
                            67 4.02 175 4.20 151 4.20 211 4.21 223 4.21
 140  0.196  0.223  0.921- 137 3.56 161 3.56 209 3.57 139 3.58 149 3.58 163 3.58 211 3.59 151 3.59
                           138 4.09 152 4.18 176 4.18 212 4.21 224 4.21
 141  0.529  0.055  0.502- 132 3.55 144 3.56 228 3.57 216 3.57 214 3.58 226 3.58 130 3.59 142 3.60
                           143 4.09 225 4.17 129 4.18 153 4.21
 142  0.530  0.222  0.457-  51 3.04 177 3.58 153 3.58 165 3.59 141 3.60 144 3.99 226 4.18 130 4.19
                           166 4.20 154 4.22
 143  0.529  0.055  0.594- 146 3.62 218 3.62 134 3.63 230 3.63 144 3.64 228 3.64 216 3.65 132 3.65
                           141 4.09 145 4.13 131 4.17 227 4.18 155 4.21
 144  0.531  0.221  0.547- 141 3.56 165 3.57 177 3.57 153 3.58 143 3.64 155 3.65 179 3.65 167 3.65
                           142 3.99 228 4.15 132 4.18 146 4.19
 145  0.530  0.054  0.688- 134 3.60 218 3.61 230 3.61 146 3.61 136 3.64 232 3.64 148 3.64 220 3.64
                           143 4.13 229 4.15 147 4.16 133 4.18
 146  0.530  0.221  0.641- 181 3.61 169 3.61 145 3.61 157 3.62 143 3.62 179 3.63 155 3.63 167 3.64
                           148 4.16 230 4.16 134 4.18 144 4.19
 147  0.529  0.055  0.781- 148 3.60 232 3.61 136 3.61 220 3.62 150 3.62 222 3.63 138 3.63 234 3.64
                           145 4.16 231 4.17 135 4.18 149 4.19 159 4.21
 148  0.530  0.221  0.735- 159 3.60 147 3.60 171 3.61 183 3.61 169 3.63 157 3.64 145 3.64 181 3.64
                           150 4.13 232 4.15 146 4.16 136 4.18
 149  0.530  0.054  0.876- 236 3.56 224 3.56 152 3.57 140 3.58 138 3.64 222 3.64 150 3.65 234 3.65
                           151 3.99 233 4.15 137 4.18 147 4.19
 150  0.529  0.221  0.828- 147 3.62 183 3.62 171 3.63 159 3.63 149 3.65 173 3.65 185 3.65 161 3.65
                           152 4.09 148 4.13 138 4.17 234 4.18 162 4.22
 151  0.531  0.055  0.966-  41 3.26 115 3.57 152 3.58 236 3.58 140 3.59 224 3.60 149 3.99 235 4.18
                           139 4.20 175 4.20 163 4.21
 152  0.529  0.221  0.921- 161 3.55 185 3.56 173 3.56 149 3.57 151 3.58 163 3.59 175 3.59 187 3.60
                           150 4.09 236 4.17 140 4.18 164 4.21
 153  0.197  0.389  0.502- 132 3.56 156 3.56 144 3.58 130 3.58 204 3.58 142 3.58 202 3.59 154 3.59
                           155 4.09 201 4.18 177 4.18 141 4.21 225 4.21
 154  0.196  0.556  0.457-  12 3.00 189 3.58 225 3.58 177 3.59 153 3.59 156 3.97 123 4.07  63 4.13
                           178 4.20 202 4.20 226 4.20 142 4.22
 155  0.196  0.389  0.594- 146 3.63 206 3.63 134 3.64 158 3.64 204 3.64 144 3.65 132 3.65 156 3.66
                           153 4.09 157 4.16 203 4.17 179 4.18 227 4.21 143 4.21
 156  0.197  0.556  0.546- 177 3.55 225 3.55 189 3.56 153 3.56 179 3.65 227 3.65 191 3.65 155 3.66
                           154 3.97 180 4.19 204 4.19
 157  0.196  0.389  0.688- 158 3.61 134 3.61 206 3.62 146 3.62 136 3.62 160 3.63 148 3.64 208 3.64
                           159 4.13 155 4.16 205 4.18 181 4.18
 158  0.196  0.556  0.642- 181 3.60 229 3.60 193 3.61 157 3.61 227 3.63 179 3.63 191 3.64 155 3.64
                           160 4.13 206 4.18 182 4.19 230 4.22
 159  0.196  0.389  0.781- 208 3.60 148 3.60 136 3.61 160 3.61 210 3.63 150 3.63 138 3.64 162 3.64
                           157 4.13 183 4.18 207 4.19 231 4.21 147 4.21
 160  0.196  0.556  0.735- 195 3.61 159 3.61 183 3.62 231 3.62 193 3.62 157 3.63 229 3.63 181 3.64
                           158 4.13 162 4.16 184 4.18 208 4.18
 161  0.196  0.389  0.877- 152 3.55 212 3.55 164 3.56 140 3.56 138 3.65 210 3.65 162 3.65 150 3.65
                           163 3.96 209 4.19 185 4.19
 162  0.196  0.556  0.829- 231 3.63 183 3.63 233 3.64 159 3.64 195 3.64 185 3.64 197 3.65 161 3.65
                           164 4.09 160 4.16 186 4.17 210 4.18 234 4.20 150 4.22
 163  0.196  0.389  0.966-  43 3.02 164 3.58 140 3.58 212 3.58 152 3.59 161 3.96 101 4.18 211 4.20
                           187 4.20 235 4.21 151 4.21
 164  0.196  0.556  0.921- 161 3.56 197 3.56 185 3.58 233 3.58 199 3.58 163 3.58 187 3.59 235 3.59
                           162 4.09 188 4.18 212 4.18 152 4.21 236 4.22
 165  0.864  0.057  0.502- 192 3.55 144 3.57 168 3.57 228 3.57 166 3.57 190 3.58 142 3.59 226 3.60
                           167 4.09 177 4.17 129 4.18 189 4.21
 166  0.862  0.224  0.457-  24 3.32  99 3.53 165 3.57 177 3.58 129 3.59 201 3.60 168 3.99  87 4.06
                           178 4.17 130 4.20 142 4.20 190 4.20
 167  0.864  0.056  0.594- 230 3.62 170 3.63 194 3.63 146 3.64 228 3.64 168 3.65 144 3.65 192 3.65
                           165 4.09 169 4.13 131 4.17 179 4.18 191 4.21
 168  0.862  0.224  0.547- 177 3.57 165 3.57 201 3.57 129 3.58 203 3.64 167 3.65 131 3.65 179 3.65
                           166 3.99 180 4.15 132 4.19 170 4.19
 169  0.862  0.058  0.688- 194 3.60 170 3.61 146 3.61 230 3.61 148 3.63 196 3.64 172 3.64 232 3.64
                           167 4.13 181 4.15 171 4.16 133 4.18
 170  0.863  0.224  0.641- 169 3.61 181 3.61 205 3.62 133 3.62 167 3.63 203 3.63 131 3.63 179 3.63
                           172 4.16 182 4.17 134 4.18 168 4.19 194 4.22
 171  0.863  0.057  0.782- 232 3.61 148 3.61 172 3.62 196 3.62 234 3.62 174 3.63 150 3.63 198 3.63
                           169 4.16 183 4.17 135 4.18 173 4.19 195 4.21
 172  0.862  0.225  0.735- 207 3.60 135 3.60 183 3.61 171 3.62 181 3.64 133 3.64 169 3.64 205 3.64
                           174 4.13 184 4.15 170 4.16 136 4.18
 173  0.862  0.058  0.876- 152 3.56 176 3.57 236 3.57 200 3.58 198 3.64 174 3.64 234 3.64 150 3.65
                           175 3.99 185 4.15 137 4.19 171 4.19
 174  0.864  0.223  0.828- 207 3.62 135 3.63 171 3.63 183 3.64 173 3.64 209 3.64 137 3.65 185 3.65
                           176 4.09 172 4.13 138 4.18 186 4.18 198 4.21
 175  0.863  0.057  0.966-  82 3.34 236 3.57 200 3.59 152 3.59 176 3.60 125 3.66 173 3.99  89 4.00
                           187 4.18 139 4.20 151 4.20 199 4.21
 176  0.863  0.224  0.921- 137 3.55 185 3.56 173 3.57 209 3.57 211 3.58 139 3.58 187 3.58 175 3.60
                           174 4.09 188 4.17 140 4.18 200 4.21
 177  0.529  0.388  0.502- 156 3.55 180 3.56 168 3.57 144 3.57 142 3.58 166 3.58 154 3.59 178 3.60
                           179 4.09 165 4.17 153 4.18 189 4.21
 178  0.531  0.555  0.457-  63 3.25 213 3.58 201 3.58 189 3.59 177 3.60 180 3.99 166 4.17 154 4.20
                           202 4.20
 179  0.529  0.388  0.594- 146 3.63 158 3.63 182 3.63 170 3.63 180 3.64 168 3.65 144 3.65 156 3.65
                           177 4.09 181 4.13 155 4.18 167 4.18 191 4.21
 180  0.531  0.554  0.547- 201 3.56 177 3.56 213 3.57 189 3.58 179 3.64 203 3.65 191 3.65 215 3.65
                           178 3.99 168 4.15 156 4.19 182 4.20
 181  0.530  0.387  0.688- 158 3.60 146 3.61 170 3.61 182 3.62 172 3.64 160 3.64 184 3.64 148 3.64
                           179 4.13 169 4.15 183 4.16 157 4.18
 182  0.530  0.555  0.641- 217 3.60 205 3.60 181 3.62 215 3.62 193 3.62 179 3.63 191 3.63 203 3.63
                           184 4.16 170 4.17 158 4.19 180 4.20 194 4.21
 183  0.529  0.388  0.782- 184 3.61 172 3.61 148 3.61 160 3.62 150 3.62 186 3.62 162 3.63 174 3.64
                           181 4.16 171 4.17 159 4.18 185 4.19
 184  0.530  0.554  0.735- 195 3.60 183 3.61 207 3.61 219 3.62 205 3.63 193 3.64 181 3.64 217 3.64
                           186 4.13 172 4.15 182 4.16 160 4.18
 185  0.530  0.387  0.876- 152 3.56 176 3.56 188 3.57 164 3.58 186 3.64 162 3.64 174 3.65 150 3.65
                           187 3.99 173 4.15 161 4.19 183 4.19
 186  0.529  0.555  0.828- 183 3.62 219 3.63 207 3.63 195 3.63 185 3.64 221 3.65 209 3.65 197 3.65
                           188 4.09 184 4.13 162 4.17 174 4.18 198 4.22
 187  0.530  0.388  0.966-  53 3.11 188 3.57 176 3.58 164 3.59 152 3.60  91 3.82 185 3.99 175 4.18
                           163 4.20 211 4.20 199 4.21
 188  0.529  0.555  0.921- 197 3.55 209 3.57 221 3.57 185 3.57 187 3.57 199 3.58 211 3.59 223 3.60
                           186 4.09 176 4.17 164 4.18 200 4.21
 189  0.196  0.723  0.502- 192 3.56 156 3.56 154 3.58 180 3.58 228 3.58 190 3.59 178 3.59 226 3.59
                           191 4.09 225 4.18 213 4.18 177 4.21 165 4.21
 190  0.196  0.890  0.457- 165 3.58 129 3.58 189 3.59 213 3.59  87 3.67  75 3.74 192 3.97 214 4.20
                           226 4.20 166 4.20
 191  0.197  0.722  0.594- 182 3.63 230 3.63 158 3.64 194 3.64 180 3.65 228 3.65 192 3.65 156 3.65
                           189 4.09 193 4.16 227 4.17 215 4.17 179 4.21 167 4.21
 192  0.197  0.889  0.546- 213 3.55 165 3.55 189 3.56 129 3.56 215 3.65 167 3.65 191 3.65 131 3.65
                           190 3.97 216 4.19 228 4.19
 193  0.196  0.723  0.688- 194 3.61 158 3.61 230 3.62 160 3.62 182 3.62 196 3.63 232 3.64 184 3.64
                           195 4.13 191 4.16 229 4.18 217 4.18
 194  0.197  0.889  0.642- 217 3.60 169 3.60 193 3.61 133 3.61 167 3.63 215 3.63 191 3.64 131 3.64
                           196 4.13 230 4.18 218 4.18 182 4.21 170 4.22
 195  0.196  0.723  0.781- 232 3.60 184 3.60 196 3.61 160 3.61 234 3.63 186 3.63 198 3.64 162 3.64
                           193 4.13 219 4.18 231 4.19 171 4.21
 196  0.196  0.889  0.735- 135 3.61 195 3.61 219 3.62 171 3.62 133 3.62 193 3.63 217 3.63 169 3.64
                           194 4.13 198 4.16 220 4.18 232 4.19
 197  0.197  0.723  0.877- 188 3.55 236 3.56 200 3.56 164 3.56 186 3.65 162 3.65 234 3.65 198 3.65
                           199 3.96 221 4.18 233 4.19
 198  0.196  0.889  0.829- 219 3.63 171 3.63 173 3.64 195 3.64 135 3.64 221 3.64 137 3.65 197 3.65
                           200 4.09 196 4.16 222 4.17 234 4.18 174 4.21 186 4.22
 199  0.196  0.723  0.966-  55 3.23 164 3.58 200 3.58 236 3.58 188 3.58 125 3.85  65 3.92 197 3.96
                           235 4.19 223 4.20 175 4.21 187 4.21
 200  0.196  0.889  0.921- 197 3.56 137 3.56 221 3.58 173 3.58 199 3.58 139 3.58 175 3.59 223 3.59
                           198 4.09 224 4.18 236 4.18 188 4.21 176 4.21
 201  0.864  0.390  0.502- 132 3.55 180 3.56 168 3.57 204 3.57 202 3.58 130 3.58 178 3.58 166 3.60
                           203 4.09 213 4.18 153 4.18 129 4.21
 202  0.862  0.557  0.457- 111 3.07 201 3.58 213 3.58 153 3.59 225 3.60 204 3.99 214 4.17 154 4.20
                           178 4.20 130 4.21
 203  0.864  0.390  0.594- 206 3.63 134 3.63 170 3.63 182 3.63 204 3.64 168 3.64 180 3.65 132 3.65
                           201 4.09 205 4.14 155 4.17 215 4.18 131 4.21
 204  0.862  0.558  0.547- 213 3.57 225 3.57 201 3.57 153 3.58 227 3.64 203 3.64 155 3.64 215 3.64
                           202 3.99 216 4.15 156 4.19 206 4.19
 205  0.863  0.391  0.688- 134 3.60 182 3.60 206 3.61 170 3.62 136 3.63 184 3.63 208 3.64 172 3.64
                           203 4.14 217 4.15 207 4.16 157 4.18
 206  0.863  0.557  0.641- 205 3.61 217 3.61 229 3.61 157 3.62 203 3.63 227 3.63 155 3.63 215 3.63
                           208 4.16 218 4.16 158 4.18 204 4.19 134 4.22
 207  0.863  0.390  0.782- 172 3.60 184 3.61 174 3.62 136 3.62 208 3.62 210 3.63 138 3.63 186 3.63
                           205 4.16 219 4.17 159 4.19 209 4.19 135 4.21
 208  0.862  0.558  0.735- 159 3.60 231 3.60 219 3.61 207 3.62 217 3.64 157 3.64 205 3.64 229 3.64
                           210 4.13 220 4.15 206 4.16 160 4.18
 209  0.863  0.391  0.876- 212 3.57 188 3.57 176 3.57 140 3.57 138 3.64 210 3.64 174 3.64 186 3.65
                           211 3.99 221 4.16 161 4.19 207 4.19
 210  0.864  0.557  0.828- 231 3.62 159 3.63 207 3.63 219 3.64 209 3.64 233 3.65 221 3.65 161 3.65
                           212 4.09 208 4.13 162 4.18 222 4.18 138 4.21
 211  0.862  0.390  0.966- 101 3.28  91 3.53 176 3.58 188 3.59 140 3.59 212 3.60 209 3.99 223 4.18
                           163 4.20 187 4.20 139 4.21
 212  0.863  0.557  0.921- 161 3.55 209 3.57 221 3.57 233 3.57 235 3.58 163 3.58 223 3.58 211 3.60
                           210 4.09 224 4.17 164 4.18 140 4.21
 213  0.529  0.722  0.502- 192 3.55 216 3.56 204 3.57 180 3.57 178 3.58 202 3.58 190 3.59 214 3.60
                           215 4.09 201 4.18 189 4.18 129 4.21
 214  0.530  0.888  0.457-  32 3.36  39 3.52 141 3.58 129 3.59 225 3.59 213 3.60 216 3.99  75 4.03
                           202 4.17 190 4.20 226 4.20 130 4.22
 215  0.529  0.722  0.594- 182 3.62 218 3.63 194 3.63 206 3.63 216 3.64 204 3.64 180 3.65 192 3.65
                           213 4.09 217 4.14 191 4.17 203 4.18 131 4.21
 216  0.531  0.887  0.547- 213 3.56 225 3.56 141 3.57 129 3.58 215 3.64 131 3.65 143 3.65 227 3.65
                           214 3.99 204 4.15 192 4.19 218 4.20
 217  0.530  0.721  0.688- 194 3.60 182 3.60 206 3.61 218 3.62 196 3.63 208 3.64 220 3.64 184 3.64
                           215 4.14 205 4.15 219 4.16 193 4.18
 218  0.530  0.888  0.641- 145 3.61 229 3.61 217 3.62 133 3.62 143 3.62 215 3.63 131 3.63 227 3.63
                           220 4.16 206 4.16 194 4.18 216 4.20 134 4.22
 219  0.529  0.721  0.782- 220 3.61 208 3.61 196 3.62 184 3.62 222 3.62 186 3.63 198 3.63 210 3.64
                           217 4.16 207 4.17 195 4.18 221 4.19
 220  0.530  0.887  0.735- 135 3.61 219 3.61 231 3.61 147 3.62 229 3.63 133 3.64 217 3.64 145 3.64
                           222 4.13 208 4.15 218 4.16 196 4.18
 221  0.530  0.721  0.876- 212 3.57 188 3.57 224 3.57 200 3.58 198 3.64 222 3.64 186 3.65 210 3.65
                           223 3.99 209 4.16 197 4.18 219 4.19
 222  0.528  0.888  0.828- 219 3.62 147 3.63 135 3.63 231 3.63 221 3.64 149 3.64 233 3.65 137 3.65
                           224 4.09 220 4.13 198 4.17 210 4.18 138 4.21
 223  0.530  0.722  0.966- 103 3.38 224 3.58 212 3.58 200 3.59 188 3.60  65 3.63  77 3.99 221 3.99
                           211 4.18 199 4.20  67 4.20 235 4.20 139 4.21
 224  0.529  0.888  0.921- 137 3.55 149 3.56 233 3.56 221 3.57 223 3.58 139 3.58 235 3.59 151 3.60
                           222 4.09 212 4.17 200 4.18 140 4.21
 225  0.864  0.724  0.502- 156 3.55 216 3.56 228 3.57 204 3.57 226 3.57 154 3.58 214 3.59 202 3.60
                           227 4.09 141 4.17 189 4.18 153 4.21
 226  0.862  0.890  0.457- 123 3.28 225 3.57 141 3.58 189 3.59 165 3.60 228 3.99 142 4.18 190 4.20
                           214 4.20 154 4.20
 227  0.864  0.723  0.594- 230 3.62 206 3.63 158 3.63 218 3.63 228 3.64 204 3.64 216 3.65 156 3.65
                           225 4.09 229 4.13 191 4.17 143 4.18 155 4.21
 228  0.862  0.891  0.547- 141 3.57 225 3.57 165 3.57 189 3.58 227 3.64 167 3.64 143 3.64 191 3.65
                           226 3.99 144 4.15 192 4.19 230 4.19
 229  0.863  0.725  0.688- 158 3.60 230 3.61 218 3.61 206 3.61 220 3.63 160 3.63 232 3.64 208 3.64
                           227 4.13 145 4.15 231 4.16 193 4.18
 230  0.863  0.891  0.641- 229 3.61 145 3.61 169 3.61 193 3.62 227 3.62 167 3.62 191 3.63 143 3.63
                           232 4.16 146 4.16 194 4.18 228 4.19 158 4.22
 231  0.863  0.724  0.782- 208 3.60 220 3.61 232 3.62 160 3.62 210 3.62 234 3.63 162 3.63 222 3.63
                           229 4.16 147 4.17 195 4.19 233 4.19 159 4.21
 232  0.862  0.891  0.735- 195 3.60 171 3.61 147 3.61 231 3.62 145 3.64 193 3.64 229 3.64 169 3.64
                           234 4.13 148 4.15 230 4.16 196 4.19
 233  0.862  0.724  0.876- 224 3.56 236 3.57 212 3.57 164 3.58 162 3.64 234 3.64 210 3.65 222 3.65
                           235 3.99 149 4.15 197 4.19 231 4.19
 234  0.864  0.890  0.828- 171 3.62 231 3.63 195 3.63 147 3.64 233 3.64 173 3.64 149 3.65 197 3.65
                           236 4.09 232 4.13 150 4.18 198 4.18 162 4.20
 235  0.863  0.723  0.966- 113 3.14 212 3.58 164 3.59 224 3.59 236 3.60 115 3.77 233 3.99 151 4.18
                           199 4.19 223 4.20 163 4.21
 236  0.863  0.891  0.921- 197 3.56 149 3.56 233 3.57 173 3.57 175 3.57 151 3.58 199 3.58 235 3.60
                           234 4.09 152 4.17 200 4.18 164 4.22
 237  0.452  0.028  0.035-  41 2.23  77 2.23 115 2.23  34 2.23  33 2.24
 238  0.452  0.028  0.136-  78 2.23  44 2.23 118 2.23  36 2.23  35 2.26  33 2.26
 239  0.452  0.028  0.238-  79 2.23  47 2.23 121 2.23  38 2.23  37 2.26  35 2.26
 240  0.452  0.028  0.340-  39 2.22  80 2.23  50 2.23 124 2.23  40 2.23  37 2.26
 241  0.452  0.278  0.035-  82 2.23  43 2.23  53 2.23  41 2.23  42 2.24
 242  0.452  0.278  0.136-  84 2.23  46 2.23  56 2.23  44 2.23  45 2.26  42 2.26
 243  0.452  0.278  0.238-  49 2.23  86 2.23  47 2.23  59 2.23  48 2.26  45 2.26
 244  0.452  0.278  0.340-  51 2.22  88 2.23  52 2.23  50 2.23  62 2.23  48 2.26
 245  0.452  0.528  0.035-  65 2.23  53 2.23  91 2.23  55 2.23  54 2.24
 246  0.452  0.528  0.136-  56 2.23  68 2.23  94 2.23  58 2.23  57 2.26  54 2.26
 247  0.452  0.528  0.238-  59 2.23  71 2.23  61 2.23  97 2.23  60 2.26  57 2.26
 248  0.452  0.528  0.340-  63 2.22  62 2.23  74 2.23 100 2.23  64 2.23  60 2.26
 249  0.452  0.778  0.035- 103 2.23  67 2.23  77 2.23  65 2.23  66 2.24
 250  0.452  0.778  0.136- 106 2.23  70 2.23  78 2.23  68 2.23  69 2.26  66 2.26
 251  0.452  0.778  0.238-  73 2.23 109 2.23  71 2.23  79 2.23  72 2.26  69 2.26
 252  0.452  0.778  0.340-  75 2.22 112 2.23  76 2.23  74 2.23  80 2.23  72 2.26
 253  0.952  0.028  0.035-  89 2.23 125 2.23  67 2.23  82 2.23  81 2.24
 254  0.952  0.028  0.136- 126 2.23  92 2.23  70 2.23  84 2.23  83 2.26  81 2.26
 255  0.952  0.028  0.238- 127 2.23  95 2.23  86 2.23  73 2.23  85 2.26  83 2.26
 256  0.952  0.028  0.340-  87 2.22 128 2.23  98 2.23  76 2.23  88 2.23  85 2.26
 257  0.952  0.278  0.035-  34 2.23  91 2.23 101 2.23  89 2.23  90 2.24
 258  0.952  0.278  0.136-  36 2.23  94 2.23 104 2.23  92 2.23  93 2.26  90 2.26
 259  0.952  0.278  0.238-  97 2.23  38 2.23  95 2.23 107 2.23  96 2.26  93 2.26
 260  0.952  0.278  0.340-  99 2.22  40 2.23 100 2.23  98 2.23 110 2.23  96 2.26
 261  0.952  0.528  0.035- 113 2.23 101 2.23  43 2.23 103 2.23 102 2.24
 262  0.952  0.528  0.136- 104 2.23 116 2.23  46 2.23 106 2.23 105 2.26 102 2.26
 263  0.952  0.528  0.238- 107 2.23 119 2.23 109 2.23  49 2.23 108 2.26 105 2.26
 264  0.952  0.528  0.340- 111 2.22 110 2.23 122 2.23  52 2.23 112 2.23 108 2.26
 265  0.952  0.778  0.035-  55 2.23 115 2.23 125 2.23 113 2.23 114 2.24
 266  0.952  0.778  0.136-  58 2.23 118 2.23 126 2.23 116 2.23 117 2.26 114 2.26
 267  0.952  0.778  0.238-  61 2.23 121 2.23 119 2.23 127 2.23 120 2.26 117 2.26
 268  0.952  0.778  0.340- 123 2.22  64 2.23 124 2.23 122 2.23 128 2.23 120 2.26
 

IMPORTANT INFORMATION: All symmetrisations will be switched off!
NOSYMM: (Re-)initialisation of all symmetry stuff for point group C_1.


----------------------------------------------------------------------------------------

                                     Primitive cell                                     

  volume of cell :    7034.3687

  direct lattice vectors                    reciprocal lattice vectors
    -8.907327300  8.907327300  0.000000000     0.000000000  0.112267122  0.000000000
   -17.814654600  0.000000000  0.000000000    -0.056133561 -0.056133561  0.000000000
     0.000000000  0.000000000 44.330263460     0.000000000  0.000000000  0.022557953

  length of vectors
    12.596863072 17.814654600 44.330263460     0.112267122  0.079384843  0.022557953

  position of ions in fractional coordinates (direct lattice)
     0.202373700  0.028196530  0.084697890
     0.202376660  0.028194070  0.187274570
     0.202377790  0.028194480  0.289080270
     0.202377380  0.028194880  0.389777620
     0.202396900  0.278175320  0.084727020
     0.202377280  0.278194850  0.187275630
     0.202377380  0.278195050  0.289056570
     0.202377460  0.278194860  0.389842880
     0.202375350  0.528194240  0.084698460
     0.202377360  0.528194560  0.187274590
     0.202377780  0.528194610  0.289080220
     0.202377370  0.528194920  0.389777640
     0.202396830  0.778174330  0.084727040
     0.202376610  0.778196050  0.187275400
     0.202383840  0.778189830  0.289051340
     0.202377380  0.778194900  0.389842840
     0.702375510  0.028194400  0.084698350
     0.702377630  0.028194740  0.187274540
     0.702378010  0.028194560  0.289080280
     0.702377340  0.028194890  0.389777620
     0.702396680  0.278174420  0.084727060
     0.702376640  0.278196030  0.187275450
     0.702383730  0.278189880  0.289051340
     0.702377360  0.278194930  0.389842840
     0.702374120  0.528196420  0.084698020
     0.702377000  0.528194180  0.187274620
     0.702377790  0.528194650  0.289080230
     0.702377250  0.528194930  0.389777630
     0.702397600  0.778174640  0.084727080
     0.702375930  0.778196730  0.187275840
     0.702383850  0.778189760  0.289051380
     0.702377320  0.778194980  0.389842840
     0.452374530  0.028193270  0.085454720
     0.202161020  0.153169130  0.033881840
     0.452382760  0.028190770  0.187349580
     0.202356210  0.154439170  0.136409670
     0.452378620  0.028194350  0.289140560
     0.202186830  0.152980580  0.238287170
     0.452380200  0.028192670  0.390177080
     0.202353940  0.152304560  0.340277720
     0.452241320  0.153168080  0.033846110
     0.452383770  0.278189530  0.085481080
     0.202631550  0.403196120  0.033885200
     0.455014790  0.151835250  0.136279440
     0.452379150  0.278193330  0.187320150
     0.202396340  0.401950170  0.136410270
     0.451942800  0.153383530  0.238252110
     0.452379550  0.278193400  0.289179750
     0.202574140  0.403401330  0.238285640
     0.450673430  0.154031530  0.340171690
     0.452379350  0.278193090  0.390241870
     0.202403080  0.404084780  0.340277570
     0.452526690  0.403203800  0.033836970
     0.452383250  0.528189980  0.085455670
     0.202162730  0.653169050  0.033881520
     0.449734330  0.404552600  0.136279300
     0.452367530  0.528199880  0.187351240
     0.202356620  0.654438900  0.136409870
     0.452813900  0.403006210  0.238252760
     0.452378410  0.528194560  0.289140930
     0.202185660  0.652980410  0.238287780
     0.454083960  0.402357100  0.340171840
     0.452380250  0.528192610  0.390177230
     0.202353920  0.652304480  0.340277810
     0.452242260  0.653167990  0.033846460
     0.452368700  0.778197950  0.085482290
     0.202631440  0.903196650  0.033885390
     0.455025300  0.651828400  0.136278710
     0.452385460  0.778191670  0.187320910
     0.202392540  0.901945720  0.136418300
     0.451943900  0.653383190  0.238252710
     0.452379340  0.778194310  0.289179700
     0.202574400  0.903401420  0.238285980
     0.450673580  0.654031480  0.340171770
     0.452379350  0.778193140  0.390241860
     0.202403270  0.904084980  0.340277630
     0.452525910  0.903204030  0.033837020
     0.449735640  0.904552230  0.136279660
     0.452814090  0.903006790  0.238252000
     0.454083880  0.902357230  0.340171700
     0.952383100  0.028190140  0.085455620
     0.702162820  0.153168940  0.033881500
     0.952367490  0.028199880  0.187351220
     0.702357120  0.154438620  0.136409870
     0.952378550  0.028194390  0.289140930
     0.702185900  0.152979870  0.238287900
     0.952380300  0.028192600  0.390177220
     0.702353930  0.152304420  0.340277820
     0.952242450  0.153167850  0.033846490
     0.952369610  0.278197000  0.085482300
     0.702631530  0.403196510  0.033885410
     0.955025390  0.151828050  0.136278740
     0.952386880  0.278190380  0.187320920
     0.702392790  0.401945180  0.136418440
     0.951944870  0.153382540  0.238252870
     0.952380340  0.278193370  0.289179820
     0.702574830  0.403401220  0.238286020
     0.950673620  0.154031460  0.340171760
     0.952379490  0.278193000  0.390241870
     0.702403340  0.404084870  0.340277690
     0.952526080  0.403203960  0.033837030
     0.952374720  0.528193090  0.085454910
     0.702161120  0.653169170  0.033881830
     0.949733310  0.404553250  0.136279220
     0.952382650  0.528190820  0.187349840
     0.702355990  0.654439440  0.136409500
     0.952814270  0.403006490  0.238252560
     0.952378390  0.528194540  0.289140730
     0.702186750  0.652979660  0.238287960
     0.954084240  0.402357030  0.340171760
     0.952380420  0.528192550  0.390177180
     0.702354010  0.652304430  0.340277820
     0.952241220  0.653168080  0.033846140
     0.952382820  0.778190470  0.085481020
     0.702631600  0.903196170  0.033885170
     0.955014490  0.651835650  0.136279280
     0.952377700  0.778194630  0.187320150
     0.702396360  0.901949210  0.136410630
     0.951944420  0.653382830  0.238252910
     0.952378570  0.778194330  0.289179700
     0.702570100  0.903409960  0.238286880
     0.950673360  0.654031530  0.340171770
     0.952379440  0.778193060  0.390241870
     0.702403110  0.904085010  0.340277570
     0.952526620  0.903203880  0.033836930
     0.949733340  0.904553280  0.136279150
     0.952813820  0.903006470  0.238252750
     0.954083690  0.902357240  0.340171800
     0.196508210  0.055846490  0.501890250
     0.196099660  0.222949760  0.456631730
     0.196591900  0.055771250  0.594174600
     0.196675590  0.222430150  0.546122540
     0.196175080  0.056044510  0.688017440
     0.196342970  0.222606620  0.641759380
     0.196090230  0.056178970  0.781087990
     0.196133790  0.222771600  0.734880100
     0.196218930  0.056007920  0.876638840
     0.196329690  0.222754130  0.828691560
     0.196094900  0.056133710  0.966019860
     0.196327690  0.222565050  0.920917470
     0.529130800  0.054936610  0.502096150
     0.530195930  0.221786290  0.456697840
     0.528635310  0.055095250  0.594413650
     0.530653930  0.220561790  0.546731120
     0.529986610  0.054102550  0.687682520
     0.529733330  0.221114370  0.641303970
     0.528932410  0.054944230  0.781488820
     0.529963630  0.220719930  0.735200570
     0.530403940  0.054004330  0.876081220
     0.528778000  0.221474280  0.828337610
     0.530519870  0.055051320  0.966126500
     0.529464910  0.221430170  0.920627910
     0.196500180  0.389175630  0.501880170
     0.195994850  0.556467840  0.456670970
     0.196440690  0.389222790  0.594198140
     0.196680370  0.555788730  0.546120700
     0.196238630  0.389378170  0.687970420
     0.196465190  0.555910290  0.641764160
     0.196113840  0.389477760  0.781103620
     0.196145300  0.556159510  0.734848390
     0.196345730  0.389256950  0.876600170
     0.196101530  0.556203230  0.828724830
     0.196398940  0.389226590  0.966041820
     0.196384550  0.555890210  0.920935170
     0.863805730  0.056949350  0.502086140
     0.862190320  0.223523060  0.456723570
     0.864464830  0.056478520  0.594409030
     0.862253010  0.224338690  0.546759080
     0.862395910  0.057806190  0.687660640
     0.863215600  0.223778840  0.641335040
     0.863000390  0.057058790  0.781585480
     0.862350330  0.224525210  0.735242830
     0.862365560  0.057627610  0.876081510
     0.864261560  0.223304130  0.828467090
     0.862510320  0.056555880  0.966163070
     0.863111100  0.223667410  0.920751100
     0.529106080  0.388267290  0.502101970
     0.530778630  0.554812610  0.456757550
     0.528681620  0.388422510  0.594418170
     0.530963040  0.553842830  0.546688000
     0.530132570  0.387347630  0.687612230
     0.530132990  0.554640940  0.641365680
     0.529275580  0.387980160  0.781563500
     0.530188670  0.553842420  0.735183130
     0.530426290  0.387448680  0.876105620
     0.528742680  0.554841300  0.828429590
     0.530351850  0.388486260  0.966126110
     0.529283270  0.554828230  0.920737120
     0.196465230  0.722594970  0.501906740
     0.195910360  0.889714450  0.456675700
     0.196739720  0.722342780  0.594191190
     0.196706190  0.889000840  0.546156780
     0.196210270  0.722633350  0.687996010
     0.196562790  0.889110000  0.641799700
     0.196250600  0.722829080  0.781082370
     0.196256960  0.889469550  0.734891110
     0.196546020  0.722632520  0.876669730
     0.196213020  0.889462920  0.828685050
     0.196053400  0.722685530  0.966035690
     0.196429070  0.889199020  0.920906640
     0.863904790  0.390192490  0.502112130
     0.862277750  0.556921850  0.456728600
     0.864473780  0.389980470  0.594381820
     0.862238520  0.557790550  0.546782530
     0.862669140  0.391113670  0.687666210
     0.863102040  0.557278350  0.641343750
     0.863009320  0.390159970  0.781612900
     0.862390980  0.557830780  0.735231950
     0.862554270  0.390814170  0.876138480
     0.864174080  0.556617740  0.828444710
     0.862408310  0.390138100  0.966124180
     0.863389500  0.556958050  0.920722420
     0.529283160  0.721655180  0.502139190
     0.530436420  0.888290440  0.456709250
     0.528799950  0.721677870  0.594410540
     0.530865330  0.887215560  0.546700240
     0.529817280  0.720924470  0.687707610
     0.529795590  0.887874120  0.641339110
     0.529294640  0.721337680  0.781560400
     0.530127950  0.887307140  0.735163250
     0.530371630  0.720849570  0.876076790
     0.528370330  0.888418390  0.828363850
     0.530439640  0.721715890  0.966144270
     0.529314150  0.888154390  0.920706990
     0.863831350  0.723630130  0.502106230
     0.862231830  0.890167870  0.456726770
     0.864403100  0.723311520  0.594414850
     0.862094890  0.891028960  0.546786170
     0.862550280  0.724512670  0.687687440
     0.863178170  0.890525870  0.641337890
     0.862886790  0.723697410  0.781581130
     0.862494880  0.891002120  0.735251120
     0.862220360  0.724331260  0.876117360
     0.864146470  0.889975870  0.828450990
     0.862517380  0.723300300  0.966158910
     0.863003710  0.890544800  0.920715130
     0.452411060  0.028173220  0.034899630
     0.452378440  0.028191990  0.136426850
     0.452378720  0.028194550  0.238267000
     0.452379540  0.028193400  0.340129310
     0.452412020  0.278173980  0.034905840
     0.452377330  0.278193060  0.136430030
     0.452378990  0.278193960  0.238260970
     0.452379480  0.278193730  0.340174400
     0.452411590  0.528173080  0.034900090
     0.452376600  0.528192040  0.136427870
     0.452378920  0.528194060  0.238267870
     0.452379440  0.528193460  0.340129480
     0.452411060  0.778174710  0.034906440
     0.452374530  0.778193780  0.136430840
     0.452379330  0.778194430  0.238261190
     0.452379080  0.778194000  0.340174380
     0.952411600  0.028173070  0.034900070
     0.952376670  0.028191960  0.136427860
     0.952378770  0.028194200  0.238267870
     0.952379470  0.028193410  0.340129480
     0.952411070  0.278174680  0.034906460
     0.952374770  0.278193380  0.136430870
     0.952380120  0.278193850  0.238261240
     0.952379090  0.278193720  0.340174440
     0.952411040  0.528173240  0.034899730
     0.952378230  0.528192180  0.136426950
     0.952379460  0.528193780  0.238267340
     0.952379030  0.528193890  0.340129500
     0.952411970  0.778174010  0.034905820
     0.952376930  0.778193470  0.136429990
     0.952378870  0.778194510  0.238260920
     0.952379010  0.778194000  0.340174390

  ion indices of the primitive-cell ions
   primitive index   ion index
                 1           1
                 2           2
                 3           3
                 4           4
                 5           5
                 6           6
                 7           7
                 8           8
                 9           9
                10          10
                11          11
                12          12
                13          13
                14          14
                15          15
                16          16
                17          17
                18          18
                19          19
                20          20
                21          21
                22          22
                23          23
                24          24
                25          25
                26          26
                27          27
                28          28
                29          29
                30          30
                31          31
                32          32
                33          33
                34          34
                35          35
                36          36
                37          37
                38          38
                39          39
                40          40
                41          41
                42          42
                43          43
                44          44
                45          45
                46          46
                47          47
                48          48
                49          49
                50          50
                51          51
                52          52
                53          53
                54          54
                55          55
                56          56
                57          57
                58          58
                59          59
                60          60
                61          61
                62          62
                63          63
                64          64
                65          65
                66          66
                67          67
                68          68
                69          69
                70          70
                71          71
                72          72
                73          73
                74          74
                75          75
                76          76
                77          77
                78          78
                79          79
                80          80
                81          81
                82          82
                83          83
                84          84
                85          85
                86          86
                87          87
                88          88
                89          89
                90          90
                91          91
                92          92
                93          93
                94          94
                95          95
                96          96
                97          97
                98          98
                99          99
               100         100
               101         101
               102         102
               103         103
               104         104
               105         105
               106         106
               107         107
               108         108
               109         109
               110         110
               111         111
               112         112
               113         113
               114         114
               115         115
               116         116
               117         117
               118         118
               119         119
               120         120
               121         121
               122         122
               123         123
               124         124
               125         125
               126         126
               127         127
               128         128
               129         129
               130         130
               131         131
               132         132
               133         133
               134         134
               135         135
               136         136
               137         137
               138         138
               139         139
               140         140
               141         141
               142         142
               143         143
               144         144
               145         145
               146         146
               147         147
               148         148
               149         149
               150         150
               151         151
               152         152
               153         153
               154         154
               155         155
               156         156
               157         157
               158         158
               159         159
               160         160
               161         161
               162         162
               163         163
               164         164
               165         165
               166         166
               167         167
               168         168
               169         169
               170         170
               171         171
               172         172
               173         173
               174         174
               175         175
               176         176
               177         177
               178         178
               179         179
               180         180
               181         181
               182         182
               183         183
               184         184
               185         185
               186         186
               187         187
               188         188
               189         189
               190         190
               191         191
               192         192
               193         193
               194         194
               195         195
               196         196
               197         197
               198         198
               199         199
               200         200
               201         201
               202         202
               203         203
               204         204
               205         205
               206         206
               207         207
               208         208
               209         209
               210         210
               211         211
               212         212
               213         213
               214         214
               215         215
               216         216
               217         217
               218         218
               219         219
               220         220
               221         221
               222         222
               223         223
               224         224
               225         225
               226         226
               227         227
               228         228
               229         229
               230         230
               231         231
               232         232
               233         233
               234         234
               235         235
               236         236
               237         237
               238         238
               239         239
               240         240
               241         241
               242         242
               243         243
               244         244
               245         245
               246         246
               247         247
               248         248
               249         249
               250         250
               251         251
               252         252
               253         253
               254         254
               255         255
               256         256
               257         257
               258         258
               259         259
               260         260
               261         261
               262         262
               263         263
               264         264
               265         265
               266         266
               267         267
               268         268

----------------------------------------------------------------------------------------

 
 -----------------------------------------------------------------------------
|                                                                             |
|           W    W    AA    RRRRR   N    N  II  N    N   GGGG   !!!           |
|           W    W   A  A   R    R  NN   N  II  NN   N  G    G  !!!           |
|           W    W  A    A  R    R  N N  N  II  N N  N  G       !!!           |
|           W WW W  AAAAAA  RRRRR   N  N N  II  N  N N  G  GGG   !            |
|           WW  WW  A    A  R   R   N   NN  II  N   NN  G    G                |
|           W    W  A    A  R    R  N    N  II  N    N   GGGG   !!!           |
|                                                                             |
|     The requested file  could not be found or opened for reading            |
|     k-point information. Automatic k-point generation is used as a          |
|     fallback, which may lead to unwanted results.                           |
|                                                                             |
 -----------------------------------------------------------------------------

 

Automatic generation of k-mesh.
 Grid dimensions derived from KSPACING:
 generate k-points for:    2    1    1

 Generating k-lattice:

  Cartesian coordinates                     Fractional coordinates (reciprocal lattice)
     0.000000000  0.056133561  0.000000000     0.500000000  0.000000000  0.000000000
    -0.056133561 -0.056133561  0.000000000     0.000000000  1.000000000  0.000000000
     0.000000000  0.000000000  0.022557953     0.000000000  0.000000000  1.000000000

  Length of vectors
     0.056133561  0.079384843  0.022557953

  Shift w.r.t. Gamma in fractional coordinates (k-lattice)
     0.000000000  0.000000000  0.000000000

 
 Subroutine IBZKPT returns following result:
 ===========================================
 
 Found      2 irreducible k-points:
 
 Following reciprocal coordinates:
            Coordinates               Weight
  0.000000  0.000000  0.000000      1.000000
  0.500000  0.000000  0.000000      1.000000
 
 Following cartesian coordinates:
            Coordinates               Weight
  0.000000  0.000000  0.000000      1.000000
  0.000000  0.056134  0.000000      1.000000
 


--------------------------------------------------------------------------------------------------------




 Dimension of arrays:
   k-points           NKPTS =      2   k-points in BZ     NKDIM =      2   number of bands    NBANDS=    448
   number of dos      NEDOS =    301   number of ions     NIONS =    268
   non local maximal  LDIM  =      4   non local SUM 2l+1 LMDIM =      8
   total plane-waves  NPLWV = ******
   max r-space proj   IRMAX =   2071   max aug-charges    IRDMAX=   9128
   dimension x,y,z NGX =    64 NGY =   90 NGZ =  224
   dimension x,y,z NGXF=   128 NGYF=  180 NGZF=  448
   support grid    NGXF=   128 NGYF=  180 NGZF=  448
   ions per type =              32 204  32
   NGX,Y,Z   is equivalent  to a cutoff of   8.45,  8.40,  8.40 a.u.
   NGXF,Y,Z  is equivalent  to a cutoff of  16.89, 16.80, 16.80 a.u.

 SYSTEM =  unknown system                          
 POSCAR =  Cl Na  O                                

 Startparameter for this run:
   NWRITE =      1    write-flag & timer
   PREC   = normal    normal or accurate (medium, high low for compatibility)
   ISTART =      0    job   : 0-new  1-cont  2-samecut
   ICHARG =      2    charge: 1-file 2-atom 10-const
   ISPIN  =      1    spin polarized calculation?
   LNONCOLLINEAR =      F non collinear calculations
   LSORBIT =      F    spin-orbit coupling
   INIWAV =      1    electr: 0-lowe 1-rand  2-diag
   LASPH  =      T    aspherical Exc in radial PAW
 Electronic Relaxation 1
   ENCUT  =  400.0 eV  29.40 Ry    5.42 a.u.  20.54 29.05 72.29*2*pi/ulx,y,z
   ENINI  =  400.0     initial cutoff
   ENAUG  =  605.4 eV  augmentation charge cutoff
   NELM   =    150;   NELMIN=  2; NELMDL=  0     # of ELM steps 
   EDIFF  = 0.1E-07   stopping-criterion for ELM
   LREAL  =      T    real-space projection
   NLSPLINE    = F    spline interpolate recip. space projectors
   LCOMPAT=      F    compatible to vasp.4.4
   GGA_COMPAT  = T    GGA compatible to vasp.4.4-vasp.4.6
   LMAXPAW     = -100 max onsite density
   LMAXMIX     =    6 max onsite mixed and CHGCAR
   VOSKOWN=      0    Vosko Wilk Nusair interpolation
   ROPT   =   -0.00050  -0.00050  -0.00050
 Ionic relaxation
   EDIFFG = -.1E-01   stopping-criterion for IOM
   NSW    =      0    number of steps for IOM
   NBLOCK =      1;   KBLOCK =      1    inner block; outer block 
   IBRION =     -1    ionic relax: 0-MD 1-quasi-New 2-CG
   NFREE  =      0    steps in history (QN), initial steepest desc. (CG)
   ISIF   =      3    stress and relaxation
   IWAVPR =     10    prediction:  0-non 1-charg 2-wave 3-comb
   ISYM   =      0    0-nonsym 1-usesym 2-fastsym
   LCORR  =      T    Harris-Foulkes like correction to forces

   POTIM  = 0.5000    time-step for ionic-motion
   TEIN   =    0.0    initial temperature
   TEBEG  =    0.0;   TEEND  =   0.0 temperature during run
   SMASS  =  -3.00    Nose mass-parameter (am)
   estimated Nose-frequenzy (Omega)   =  0.10E-29 period in steps = 0.13E+47 mass=  -0.363E-26a.u.
   SCALEE = 1.0000    scale energy and forces
   NPACO  =    256;   APACO  = 16.0  distance and # of slots for P.C.
   PSTRESS=    0.0 pullay stress

  Mass of Ions in am
   POMASS =  35.45 22.99 16.00
  Ionic Valenz
   ZVAL   =   7.00  1.00  6.00
  Atomic Wigner-Seitz radii
   RWIGS  =  -1.00 -1.00 -1.00
  virtual crystal weights 
   VCA    =   1.00  1.00  1.00
   NELECT =     620.0000    total number of electrons
   NUPDOWN=      -1.0000    fix difference up-down

 DOS related values:
   EMIN   =  10.00;   EMAX   =-10.00  energy-range for DOS
   EFERMI =   0.00
   ISMEAR =     0;   SIGMA  =   0.10  broadening in eV -4-tet -1-fermi 0-gaus

 Electronic relaxation 2 (details)
   IALGO  =     68    algorithm
   LDIAG  =      T    sub-space diagonalisation (order eigenvalues)
   LSUBROT=      F    optimize rotation matrix (better conditioning)
   TURBO    =      0    0=normal 1=particle mesh
   IRESTART =      0    0=no restart 2=restart with 2 vectors
   NREBOOT  =      0    no. of reboots
   NMIN     =      0    reboot dimension
   EREF     =   0.00    reference energy to select bands
   IMIX   =      4    mixing-type and parameters
     AMIX     =   0.40;   BMIX     =  1.00
     AMIX_MAG =   1.60;   BMIX_MAG =  1.00
     AMIN     =   0.01
     WC   =   100.;   INIMIX=   1;  MIXPRE=   1;  MAXMIX= -45

 Intra band minimization:
   WEIMIN = 0.0000     energy-eigenvalue tresh-hold
   EBREAK =  0.56E-11  absolut break condition
   DEPER  =   0.30     relativ break condition  

   TIME   =   0.40     timestep for ELM

  volume/ion in A,a.u.               =      26.25       177.13
  Fermi-wavevector in a.u.,A,eV,Ry     =   0.728557  1.376774  7.221913  0.530796
  Thomas-Fermi vector in A             =   1.820060
 
 Write flags
   LWAVE        =      F    write WAVECAR
   LDOWNSAMPLE  =      F    k-point downsampling of WAVECAR
   LCHARG       =      F    write CHGCAR
   LVTOT        =      F    write LOCPOT, total local potential
   LVHAR        =      F    write LOCPOT, Hartree potential only
   LELF         =      F    write electronic localiz. function (ELF)
   LORBIT       =      0    0 simple, 1 ext, 2 COOP (PROOUT), +10 PAW based schemes


 Dipole corrections
   LMONO  =      F    monopole corrections only (constant potential shift)
   LDIPOL =      F    correct potential (dipole corrections)
   IDIPOL =      0    1-x, 2-y, 3-z, 4-all directions 
   EPSILON=  1.0000000 bulk dielectric constant

 Exchange correlation treatment:
   GGA     =    PE    GGA type
   LEXCH   =     8    internal setting for exchange type
   VOSKOWN=      0    Vosko Wilk Nusair interpolation
   LHFCALC =     F    Hartree Fock is set to
   LHFONE  =     F    Hartree Fock one center treatment
   AEXX    =    0.0000 exact exchange contribution

 Linear response parameters
   LEPSILON=     F    determine dielectric tensor
   LRPA    =     F    only Hartree local field effects (RPA)
   LNABLA  =     F    use nabla operator in PAW spheres
   LVEL    =     F    velocity operator in full k-point grid
   LINTERFAST=   F  fast interpolation
   KINTER  =     0    interpolate to denser k-point grid
   CSHIFT  =0.1000    complex shift for real part using Kramers Kronig
   OMEGAMAX=  -1.0    maximum frequency
   DEG_THRESHOLD= 0.2000000E-02 threshold for treating states as degnerate
   RTIME   =   -0.100 relaxation time in fs
  (WPLASMAI=    0.000 imaginary part of plasma frequency in eV, 0.658/RTIME)
   DFIELD  = 0.0000000 0.0000000 0.0000000 field for delta impulse in time
 
 Orbital magnetization related:
   ORBITALMAG=     F  switch on orbital magnetization
   LCHIMAG   =     F  perturbation theory with respect to B field
   DQ        =  0.001000  dq finite difference perturbation B field
   LLRAUG    =     F  two centre corrections for induced B field



--------------------------------------------------------------------------------------------------------


 Static calculation
 charge density and potential will be updated during run
 non-spin polarized calculation
 RMM-DIIS sequential band-by-band and
  variant of blocked Davidson during initial phase
 perform sub-space diagonalisation
    before iterative eigenvector-optimisation
 modified Broyden-mixing scheme, WC =      100.0
 initial mixing is a Kerker type mixing with AMIX =  0.4000 and BMIX =      1.0000
 Hartree-type preconditioning will be used
 using additional bands          138
 real space projection scheme for non local part
 use partial core corrections
 calculate Harris-corrections to forces 
   (improved forces if not selfconsistent)
 use gradient corrections 
 use of overlap-Matrix (Vanderbilt PP)
 Gauss-broadening in eV      SIGMA  =   0.10


--------------------------------------------------------------------------------------------------------


  energy-cutoff  :      400.00
  volume of cell :     7034.37
      direct lattice vectors                 reciprocal lattice vectors
    -8.907327300  8.907327300  0.000000000     0.000000000  0.112267122  0.000000000
   -17.814654600  0.000000000  0.000000000    -0.056133561 -0.056133561  0.000000000
     0.000000000  0.000000000 44.330263460     0.000000000  0.000000000  0.022557953

  length of vectors
    12.596863072 17.814654600 44.330263460     0.112267122  0.079384843  0.022557953


 
 k-points in units of 2pi/SCALE and weight: read from INCAR                         
   0.00000000  0.00000000  0.00000000       0.500
   0.00000000  0.05613356  0.00000000       0.500
 
 k-points in reciprocal lattice and weights: read from INCAR                         
   0.00000000  0.00000000  0.00000000       0.500
   0.50000000  0.00000000  0.00000000       0.500
 
 position of ions in fractional coordinates (direct lattice) 
   0.20237370  0.02819653  0.08469789
   0.20237666  0.02819407  0.18727457
   0.20237779  0.02819448  0.28908027
   0.20237738  0.02819488  0.38977762
   0.20239690  0.27817532  0.08472702
   0.20237728  0.27819485  0.18727563
   0.20237738  0.27819505  0.28905657
   0.20237746  0.27819486  0.38984288
   0.20237535  0.52819424  0.08469846
   0.20237736  0.52819456  0.18727459
   0.20237778  0.52819461  0.28908022
   0.20237737  0.52819492  0.38977764
   0.20239683  0.77817433  0.08472704
   0.20237661  0.77819605  0.18727540
   0.20238384  0.77818983  0.28905134
   0.20237738  0.77819490  0.38984284
   0.70237551  0.02819440  0.08469835
   0.70237763  0.02819474  0.18727454
   0.70237801  0.02819456  0.28908028
   0.70237734  0.02819489  0.38977762
   0.70239668  0.27817442  0.08472706
   0.70237664  0.27819603  0.18727545
   0.70238373  0.27818988  0.28905134
[...]
  rms(total) = 0.10116E+00    rms(broyden)= 0.10116E+00
  rms(prec ) = 0.10730E+00
  weight for this iteration     100.00

 eigenvalues of (default mixing * dielectric matrix)
  average eigenvalue GAMMA=   1.4618
  3.3813  3.3813  1.9226  1.4901  1.0577  1.0577  0.8349  0.8349  0.7328  0.7328
  0.6531

 Free energy of the ion-electron system (eV)
  ---------------------------------------------------
  alpha Z        PSCENC =      -178.91253127
  Ewald energy   TEWEN  =    121257.92339379
  -Hartree energ DENC   =   -148909.99424994
  -exchange      EXHF   =         0.00000000
  -V(xc)+E(xc)   XCENC  =     -5835.56560170
  PAW double counting   =     37676.23985038   -30098.86090741
  entropy T*S    EENTRO =        -0.31591879
  eigenvalues    EBANDS =     -2621.37582672
  atomic energy  EATOM  =     27995.60725988
  Solvation  Ediel_sol  =         0.00000000
  ---------------------------------------------------
  free energy    TOTEN  =      -715.25453178 eV

  energy without entropy =     -714.93861299  energy(sigma->0) =     -715.09657239


--------------------------------------------------------------------------------------------------------




--------------------------------------- Iteration      1(  17)  ---------------------------------------


    POTLOK:  cpu time    0.1028: real time    0.1028
    SETDIJ:  cpu time    0.1310: real time    0.1310
    EDDIAG:  cpu time    1.4687: real time    1.4688
  RMM-DIIS:  cpu time    4.6195: real time    4.6196
    ORTHCH:  cpu time    0.6143: real time    0.6143
       DOS:  cpu time    0.0022: real time    0.0022
    CHARGE:  cpu time    0.1793: real time    0.1793
    MIXING:  cpu time    0.0029: real time    0.0029
    --------------------------------------------
      LOOP:  cpu time    7.1207: real time    7.1210

 eigenvalue-minimisations  :  2655
 total energy-change (2. order) : 0.3816645E-01  (-0.8223453E-02)
 number of electron     619.9999692 magnetization 
 augmentation part       -8.4519694 magnetization 

 Broyden mixing:
  rms(total) = 0.37377E-01    rms(broyden)= 0.37337E-01
  rms(prec ) = 0.43772E-01
  weight for this iteration     100.00

 eigenvalues of (default mixing * dielectric matrix)
  average eigenvalue GAMMA=   1.4295
  4.1022  2.9685  2.0657  1.5884  1.0377  1.0377  0.8289  0.8289  0.7598  0.7060
  0.7060  0.5246

 Free energy of the ion-electron system (eV)
  ---------------------------------------------------
  alpha Z        PSCENC =      -178.91253127
  Ewald energy   TEWEN  =    121257.92339379
  -Hartree energ DENC   =   -148920.63723210
  -exchange      EXHF   =         0.00000000
  -V(xc)+E(xc)   XCENC  =     -5836.00083773
  PAW double counting   =     37651.40366241   -30073.96989401
  entropy T*S    EENTRO =        -0.31588059
  eigenvalues    EBANDS =     -2610.31430571
  atomic energy  EATOM  =     27995.60725988
  Solvation  Ediel_sol  =         0.00000000
  ---------------------------------------------------
  free energy    TOTEN  =      -715.21636534 eV

  energy without entropy =     -714.90048475  energy(sigma->0) =     -715.05842504


--------------------------------------------------------------------------------------------------------




--------------------------------------- Iteration      1(  18)  ---------------------------------------


    POTLOK:  cpu time    0.1021: real time    0.1021
    SETDIJ:  cpu time    0.1313: real time    0.1313
    EDDIAG:  cpu time    1.4670: real time    1.4670
  RMM-DIIS:  cpu time    4.5258: real time    4.5260
    ORTHCH:  cpu time    0.6149: real time    0.6150
       DOS:  cpu time    0.0026: real time    0.0026
    CHARGE:  cpu time    0.1791: real time    0.1791
    MIXING:  cpu time    0.0029: real time    0.0029
    --------------------------------------------
      LOOP:  cpu time    7.0257: real time    7.0259

 eigenvalue-minimisations  :  2591
 total energy-change (2. order) : 0.1813573E-01  (-0.2534251E-02)
 number of electron     619.9999692 magnetization 
 augmentation part       -8.4273791 magnetization 

 Broyden mixing:
  rms(total) = 0.15297E-01    rms(broyden)= 0.15268E-01
  rms(prec ) = 0.20309E-01
  weight for this iteration     100.00

 eigenvalues of (default mixing * dielectric matrix)
  average eigenvalue GAMMA=   1.6115
  5.7868  2.9878  2.2063  2.2063  0.8626  0.8626  0.9827  0.9827  0.9904  0.9904
  0.7353  0.7353  0.6203

 Free energy of the ion-electron system (eV)
  ---------------------------------------------------
  alpha Z        PSCENC =      -178.91253127
  Ewald energy   TEWEN  =    121257.92339379
  -Hartree energ DENC   =   -148935.47724406
  -exchange      EXHF   =         0.00000000
  -V(xc)+E(xc)   XCENC  =     -5836.21464125
  PAW double counting   =     37643.15518166   -30065.64476335
  entropy T*S    EENTRO =        -0.31587899
  eigenvalues    EBANDS =     -2595.31900600
  atomic energy  EATOM  =     27995.60725988
  Solvation  Ediel_sol  =         0.00000000
  ---------------------------------------------------
  free energy    TOTEN  =      -715.19822961 eV

  energy without entropy =     -714.88235062  energy(sigma->0) =     -715.04029011


--------------------------------------------------------------------------------------------------------




--------------------------------------- Iteration      1(  19)  ---------------------------------------


    POTLOK:  cpu time    0.1059: real time    0.1072
    SETDIJ:  cpu time    0.1311: real time    0.1311
    EDDIAG:  cpu time    1.4663: real time    1.4665
  RMM-DIIS:  cpu time    4.6523: real time    4.6525
    ORTHCH:  cpu time    0.6138: real time    0.6138
       DOS:  cpu time    0.0020: real time    0.0020
    CHARGE:  cpu time    0.1801: real time    0.1802
    MIXING:  cpu time    0.0031: real time    0.0031
    --------------------------------------------
      LOOP:  cpu time    7.1547: real time    7.1563

 eigenvalue-minimisations  :  2677
 total energy-change (2. order) : 0.7849763E-02  (-0.1496553E-02)
 number of electron     619.9999692 magnetization 
 augmentation part       -8.4216008 magnetization 

 Broyden mixing:
  rms(total) = 0.11646E-01    rms(broyden)= 0.11638E-01
  rms(prec ) = 0.12896E-01
  weight for this iteration     100.00

 eigenvalues of (default mixing * dielectric matrix)
  average eigenvalue GAMMA=   1.8058
  8.1707  3.2093  2.4477  2.4477  1.1350  1.1350  0.8427  0.8427  1.0802  1.0802
  0.9038  0.6807  0.6807  0.6243

 Free energy of the ion-electron system (eV)
  ---------------------------------------------------
  alpha Z        PSCENC =      -178.91253127
  Ewald energy   TEWEN  =    121257.92339379
  -Hartree energ DENC   =   -148950.31677505
  -exchange      EXHF   =         0.00000000
  -V(xc)+E(xc)   XCENC  =     -5836.37818313
  PAW double counting   =     37630.91315539   -30053.32399588
  entropy T*S    EENTRO =        -0.31599276
  eigenvalues    EBANDS =     -2580.38671081
  atomic energy  EATOM  =     27995.60725988
  Solvation  Ediel_sol  =         0.00000000
  ---------------------------------------------------
  free energy    TOTEN  =      -715.19037985 eV

  energy without entropy =     -714.87438708  energy(sigma->0) =     -715.03238346


--------------------------------------------------------------------------------------------------------




--------------------------------------- Iteration      1(  20)  ---------------------------------------


    POTLOK:  cpu time    0.1008: real time    0.1008
    SETDIJ:  cpu time    0.1310: real time    0.1310
    EDDIAG:  cpu time    1.4638: real time    1.4639
  RMM-DIIS:  cpu time    4.9471: real time    4.9489
    ORTHCH:  cpu time    0.6196: real time    0.6200
       DOS:  cpu time    0.0013: real time    0.0013
    CHARGE:  cpu time    0.1885: real time    0.1905
    MIXING:  cpu time    0.0032: real time    0.0032
    --------------------------------------------
      LOOP:  cpu time    7.4553: real time    7.4595

 eigenvalue-minimisations  :  2818
 total energy-change (2. order) : 0.1189542E-02  (-0.4511881E-03)
 number of electron     619.9999692 magnetization 
 augmentation part       -8.4212957 magnetization 

 Broyden mixing:
  rms(total) = 0.73322E-02    rms(broyden)= 0.73294E-02
  rms(prec ) = 0.76647E-02
  weight for this iteration     100.00

 eigenvalues of (default mixing * dielectric matrix)
  average eigenvalue GAMMA=   2.1144
 13.0040  3.0941  3.0941  2.3524  1.4788  1.1626  1.1626  0.8410  0.8410  0.9976
  0.9976  0.7303  0.7303  0.6148  0.6148

 Free energy of the ion-electron system (eV)
  ---------------------------------------------------
  alpha Z        PSCENC =      -178.91253127
  Ewald energy   TEWEN  =    121257.92339379
  -Hartree energ DENC   =   -148956.99598253
  -exchange      EXHF   =         0.00000000
  -V(xc)+E(xc)   XCENC  =     -5836.40719149
  PAW double counting   =     37629.95318304   -30052.30965106
  entropy T*S    EENTRO =        -0.31606718
  eigenvalues    EBANDS =     -2573.73160349
  atomic energy  EATOM  =     27995.60725988
  Solvation  Ediel_sol  =         0.00000000
  ---------------------------------------------------
  free energy    TOTEN  =      -715.18919030 eV

  energy without entropy =     -714.87312313  energy(sigma->0) =     -715.03115671


--------------------------------------------------------------------------------------------------------




--------------------------------------- Iteration      1(  21)  ---------------------------------------


    POTLOK:  cpu time    0.1079: real time    0.1156
    SETDIJ:  cpu time    0.1289: real time    0.1323
    EDDIAG:  cpu time    1.4618: real time    1.4715
  RMM-DIIS:  cpu time    4.8305: real time    4.8307
    ORTHCH:  cpu time    0.6125: real time    0.6125
       DOS:  cpu time    0.0031: real time    0.0031
    CHARGE:  cpu time    0.1745: real time    0.1745
    MIXING:  cpu time    0.0032: real time    0.0032
    --------------------------------------------
      LOOP:  cpu time    7.3224: real time    7.3435

 eigenvalue-minimisations  :  2789
 total energy-change (2. order) : 0.1247601E-03  (-0.6425495E-04)
 number of electron     619.9999692 magnetization 
 augmentation part       -8.4207784 magnetization 

 Broyden mixing:
  rms(total) = 0.46687E-02    rms(broyden)= 0.46677E-02
  rms(prec ) = 0.48228E-02
  weight for this iteration     100.00

 eigenvalues of (default mixing * dielectric matrix)
  average eigenvalue GAMMA=   2.2013
 15.4432  3.1678  3.1678  2.3301  1.4454  1.2643  1.2643  0.8425  0.8425  0.9988
  0.9988  0.7602  0.7602  0.7079  0.6134  0.6134

 Free energy of the ion-electron system (eV)
  ---------------------------------------------------
  alpha Z        PSCENC =      -178.91253127
  Ewald energy   TEWEN  =    121257.92339379
  -Hartree energ DENC   =   -148959.27958991
  -exchange      EXHF   =         0.00000000
  -V(xc)+E(xc)   XCENC  =     -5836.41588980
  PAW double counting   =     37628.12600255   -30050.45441153
  entropy T*S    EENTRO =        -0.31609614
  eigenvalues    EBANDS =     -2571.46720311
  atomic energy  EATOM  =     27995.60725988
  Solvation  Ediel_sol  =         0.00000000
  ---------------------------------------------------
  free energy    TOTEN  =      -715.18906554 eV

  energy without entropy =     -714.87296940  energy(sigma->0) =     -715.03101747


--------------------------------------------------------------------------------------------------------




--------------------------------------- Iteration      1(  22)  ---------------------------------------


    POTLOK:  cpu time    0.1036: real time    0.1036
    SETDIJ:  cpu time    0.1313: real time    0.1313
    EDDIAG:  cpu time    1.4660: real time    1.4661
  RMM-DIIS:  cpu time    4.9545: real time    4.9548
    ORTHCH:  cpu time    0.6150: real time    0.6151
       DOS:  cpu time    0.0029: real time    0.0029
    CHARGE:  cpu time    0.1750: real time    0.1750
    MIXING:  cpu time    0.0035: real time    0.0035
    --------------------------------------------
      LOOP:  cpu time    7.4519: real time    7.4523

 eigenvalue-minimisations  :  2844
 total energy-change (2. order) : 0.4976089E-05  (-0.1130182E-04)
 number of electron     619.9999692 magnetization 
 augmentation part       -8.4201487 magnetization 

 Broyden mixing:
  rms(total) = 0.42973E-02    rms(broyden)= 0.42971E-02
  rms(prec ) = 0.44199E-02
  weight for this iteration     100.00

 eigenvalues of (default mixing * dielectric matrix)
  average eigenvalue GAMMA=   2.1976
 16.0623  3.2132  3.2132  2.3077  1.5546  1.5546  1.2426  1.0598  1.0598  0.8442
  0.8442  0.8919  0.8919  0.7118  0.7118  0.6092  0.5864

 Free energy of the ion-electron system (eV)
  ---------------------------------------------------
  alpha Z        PSCENC =      -178.91253127
  Ewald energy   TEWEN  =    121257.92339379
  -Hartree energ DENC   =   -148959.66691177
  -exchange      EXHF   =         0.00000000
  -V(xc)+E(xc)   XCENC  =     -5836.42603822
  PAW double counting   =     37628.05197262   -30050.36986791
  entropy T*S    EENTRO =        -0.31610359
  eigenvalues    EBANDS =     -2571.08023409
  atomic energy  EATOM  =     27995.60725988
  Solvation  Ediel_sol  =         0.00000000
  ---------------------------------------------------
  free energy    TOTEN  =      -715.18906057 eV

  energy without entropy =     -714.87295698  energy(sigma->0) =     -715.03100877


--------------------------------------------------------------------------------------------------------




--------------------------------------- Iteration      1(  23)  ---------------------------------------


    POTLOK:  cpu time    0.2130: real time    0.2772
    SETDIJ:  cpu time    0.1321: real time    0.1321
    EDDIAG:  cpu time    1.4655: real time    1.4656
  RMM-DIIS:  cpu time    4.4126: real time    4.4128
    ORTHCH:  cpu time    0.6153: real time    0.6154
       DOS:  cpu time    0.0012: real time    0.0012
    CHARGE:  cpu time    0.1746: real time    0.1746
    MIXING:  cpu time    0.0036: real time    0.0036
    --------------------------------------------
      LOOP:  cpu time    7.0180: real time    7.0824

 eigenvalue-minimisations  :  2523
 total energy-change (2. order) : 0.4109095E-04  (-0.8617876E-05)
 number of electron     619.9999692 magnetization 
 augmentation part       -8.4226663 magnetization 

 Broyden mixing:
  rms(total) = 0.22935E-02    rms(broyden)= 0.22930E-02
  rms(prec ) = 0.23530E-02
  weight for this iteration     100.00

 eigenvalues of (default mixing * dielectric matrix)
  average eigenvalue GAMMA=   2.1932
 16.4815  3.3281  3.3281  2.2490  2.2490  1.3331  1.3331  1.1057  1.1057  0.8430
  0.8430  0.9637  0.9637  0.7320  0.7320  0.7022  0.6094  0.5750

 Free energy of the ion-electron system (eV)
  ---------------------------------------------------
  alpha Z        PSCENC =      -178.91253127
  Ewald energy   TEWEN  =    121257.92339379
  -Hartree energ DENC   =   -148960.51459299
  -exchange      EXHF   =         0.00000000
  -V(xc)+E(xc)   XCENC  =     -5836.41881929
  PAW double counting   =     37629.67031939   -30051.97730755
  entropy T*S    EENTRO =        -0.31611029
  eigenvalues    EBANDS =     -2570.25063115
  atomic energy  EATOM  =     27995.60725988
  Solvation  Ediel_sol  =         0.00000000
  ---------------------------------------------------
  free energy    TOTEN  =      -715.18901948 eV

  energy without entropy =     -714.87290918  energy(sigma->0) =     -715.03096433


--------------------------------------------------------------------------------------------------------




--------------------------------------- Iteration      1(  24)  ---------------------------------------


    POTLOK:  cpu time    0.1061: real time    0.1210
    SETDIJ:  cpu time    0.1309: real time    0.1308
    EDDIAG:  cpu time    1.4690: real time    1.4693
  RMM-DIIS:  cpu time    4.5824: real time    4.5825
    ORTHCH:  cpu time    0.6129: real time    0.6129
       DOS:  cpu time    0.0024: real time    0.0023
    CHARGE:  cpu time    0.1760: real time    0.1760
    MIXING:  cpu time    0.0037: real time    0.0037
    --------------------------------------------
      LOOP:  cpu time    7.0833: real time    7.0986

 eigenvalue-minimisations  :  2627
 total energy-change (2. order) : 0.2433644E-05  (-0.1441222E-04)
 number of electron     619.9999692 magnetization 
 augmentation part       -8.4262378 magnetization 

 Broyden mixing:
  rms(total) = 0.69970E-03    rms(broyden)= 0.69579E-03
  rms(prec ) = 0.74017E-03
  weight for this iteration     100.00

 eigenvalues of (default mixing * dielectric matrix)
  average eigenvalue GAMMA=   2.1422
 16.4915  3.4892  3.2085  2.2043  2.2043  1.4224  1.4224  1.1299  1.1299  0.8430
  0.8430  1.0447  1.0447  0.7973  0.7973  0.7158  0.7158  0.6107  0.5868

 Free energy of the ion-electron system (eV)
  ---------------------------------------------------
  alpha Z        PSCENC =      -178.91253127
  Ewald energy   TEWEN  =    121257.92339379
  -Hartree energ DENC   =   -148961.16336864
  -exchange      EXHF   =         0.00000000
  -V(xc)+E(xc)   XCENC  =     -5836.40860059
  PAW double counting   =     37631.19084316   -30053.49140021
  entropy T*S    EENTRO =        -0.31611466
  eigenvalues    EBANDS =     -2569.61849850
  atomic energy  EATOM  =     27995.60725988
  Solvation  Ediel_sol  =         0.00000000
  ---------------------------------------------------
  free energy    TOTEN  =      -715.18901704 eV

  energy without entropy =     -714.87290238  energy(sigma->0) =     -715.03095971


--------------------------------------------------------------------------------------------------------




--------------------------------------- Iteration      1(  25)  ---------------------------------------


    POTLOK:  cpu time    0.1054: real time    0.1067
    SETDIJ:  cpu time    0.1308: real time    0.1308
    EDDIAG:  cpu time    1.4669: real time    1.4670
  RMM-DIIS:  cpu time    4.8336: real time    4.8338
    ORTHCH:  cpu time    0.6124: real time    0.6125
       DOS:  cpu time    0.0012: real time    0.0012
    CHARGE:  cpu time    0.1751: real time    0.1751
    MIXING:  cpu time    0.0040: real time    0.0040
    --------------------------------------------
      LOOP:  cpu time    7.3295: real time    7.3312

 eigenvalue-minimisations  :  2763
 total energy-change (2. order) :-0.8942989E-06  (-0.1231293E-05)
 number of electron     619.9999692 magnetization 
 augmentation part       -8.4262075 magnetization 

 Broyden mixing:
  rms(total) = 0.64811E-03    rms(broyden)= 0.64791E-03
  rms(prec ) = 0.68204E-03
  weight for this iteration     100.00

 eigenvalues of (default mixing * dielectric matrix)
  average eigenvalue GAMMA=   2.1198
 16.4965  3.7805  2.6794  2.6794  2.3631  1.6569  1.6569  1.1526  1.1526  0.8425
  0.8425  1.0292  1.0292  0.8730  0.8730  0.7095  0.7095  0.6820  0.6022  0.5855

 Free energy of the ion-electron system (eV)
  ---------------------------------------------------
  alpha Z        PSCENC =      -178.91253127
  Ewald energy   TEWEN  =    121257.92339379
  -Hartree energ DENC   =   -148961.15019253
  -exchange      EXHF   =         0.00000000
  -V(xc)+E(xc)   XCENC  =     -5836.40778384
  PAW double counting   =     37630.98946119   -30053.29279343
  entropy T*S    EENTRO =        -0.31611487
  eigenvalues    EBANDS =     -2569.62971685
  atomic energy  EATOM  =     27995.60725988
  Solvation  Ediel_sol  =         0.00000000
  ---------------------------------------------------
  free energy    TOTEN  =      -715.18901794 eV

  energy without entropy =     -714.87290307  energy(sigma->0) =     -715.03096050


--------------------------------------------------------------------------------------------------------




--------------------------------------- Iteration      1(  26)  ---------------------------------------


    POTLOK:  cpu time    0.1019: real time    0.1019
    SETDIJ:  cpu time    0.1309: real time    0.1309
    EDDIAG:  cpu time    1.4634: real time    1.4635
