 running on  120 total cores
 distrk:  each k-point on  120 cores,    1 groups
 distr:  one band on   15 cores,    8 groups
 vasp.6.2.1 16May21 (build Dec 23 2021 00:35:04) complex                        
  
 POSCAR found type information on POSCAR ClNaO 
 POSCAR found :  3 types and     268 ions
 scaLAPACK will be used
 LDA part: xc-table for Pade appr. of Perdew
 -----------------------------------------------------------------------------
|                                                                             |
|           W    W    AA    RRRRR   N    N  II  N    N   GGGG   !!!           |
|           W    W   A  A   R    R  NN   N  II  NN   N  G    G  !!!           |
|           W    W  A    A  R    R  N N  N  II  N N  N  G       !!!           |
|           W WW W  AAAAAA  RRRRR   N  N N  II  N  N N  G  GGG   !            |
|           WW  WW  A    A  R   R   N   NN  II  N   NN  G    G                |
|           W    W  A    A  R    R  N    N  II  N    N   GGGG   !!!           |
|                                                                             |
|     The requested file  could not be found or opened for reading            |
|     k-point information. Automatic k-point generation is used as a          |
|     fallback, which may lead to unwanted results.                           |
|                                                                             |
 -----------------------------------------------------------------------------

 POSCAR, INCAR and KPOINTS ok, starting setup
 FFT: planning ...
 WAVECAR not read
 WARNING: random wavefunctions but no delay for mixing, default for NELMDL
 entering main loop
       N       E                     dE             d eps       ncg     rms          rms(c)
DAV:   1     0.407097505655E+04    0.40710E+04   -0.16382E+05  1840   0.819E+02
DAV:   2     0.402228294866E+03   -0.36687E+04   -0.33955E+04  2528   0.185E+02
DAV:   3    -0.836595866762E+03   -0.12388E+04   -0.12293E+04  2544   0.105E+02
DAV:   4    -0.882290246476E+03   -0.45694E+02   -0.45461E+02  2128   0.240E+01
DAV:   5    -0.883799598164E+03   -0.15094E+01   -0.15083E+01  2480   0.488E+00    0.637E+01
RMM:   6    -0.719166511161E+03    0.16463E+03   -0.62598E+02  2300   0.212E+01    0.221E+01
RMM:   7    -0.721621200729E+03   -0.24547E+01   -0.12391E+02  2576   0.683E+00    0.186E+01
RMM:   8    -0.717725400855E+03    0.38958E+01   -0.24016E+01  2397   0.457E+00    0.789E+00
RMM:   9    -0.716477693497E+03    0.12477E+01   -0.76703E+00  2372   0.359E+00    0.562E+00
RMM:  10    -0.716004627686E+03    0.47307E+00   -0.14066E+01  2594   0.239E+00    0.571E+00
RMM:  11    -0.715383195141E+03    0.62143E+00   -0.18026E+00  2387   0.124E+00    0.252E+00
RMM:  12    -0.715355050021E+03    0.28145E-01   -0.24000E+00  2493   0.121E+00    0.151E+00
RMM:  13    -0.715295891281E+03    0.59159E-01   -0.56073E-01  2510   0.650E-01    0.663E-01
RMM:  14    -0.715312311041E+03   -0.16420E-01   -0.17125E-01  2761   0.302E-01    0.131E+00
RMM:  15    -0.715301084824E+03    0.11226E-01   -0.10280E-02  2651   0.886E-02    0.125E+00
RMM:  16    -0.715254531784E+03    0.46553E-01   -0.21450E-02  2331   0.111E-01    0.101E+00
RMM:  17    -0.715216365338E+03    0.38166E-01   -0.82235E-02  2655   0.201E-01    0.374E-01
RMM:  18    -0.715198229609E+03    0.18136E-01   -0.25343E-02  2591   0.121E-01    0.153E-01
RMM:  19    -0.715190379846E+03    0.78498E-02   -0.14966E-02  2677   0.809E-02    0.116E-01
RMM:  20    -0.715189190303E+03    0.11895E-02   -0.45119E-03  2818   0.470E-02    0.733E-02
RMM:  21    -0.715189065543E+03    0.12476E-03   -0.64255E-04  2789   0.212E-02    0.467E-02
RMM:  22    -0.715189060567E+03    0.49761E-05   -0.11302E-04  2844   0.973E-03    0.430E-02
RMM:  23    -0.715189019476E+03    0.41091E-04   -0.86179E-05  2523   0.819E-03    0.229E-02
RMM:  24    -0.715189017043E+03    0.24336E-05   -0.14412E-04  2627   0.852E-03    0.700E-03
RMM:  25    -0.715189017937E+03   -0.89430E-06   -0.12313E-05  2763   0.305E-03    0.648E-03
