unknown system                          
           1
   -17.484904  -26.338586    0.000000
    -7.007836  -24.761182    0.000000
     0.000000    0.000000   30.350380
   Cl   Na   O 
    36   204    36
Direct configuration=     1
   0.85933712  0.19034613  0.30825996
   0.57300566  0.59145705  0.41905693
   0.43865998  0.37993559  0.04633967
   0.12523913  0.81839381  0.19917223
   0.07014345  0.09478378  0.30832350
   0.80582698  0.46608998  0.41854145
   0.60577105  0.34432419  0.04493127
   0.36661406  0.67931453  0.19923338
   0.30285499  0.97033876  0.30630824
   0.03552388  0.34493953  0.41848759
   0.88385811  0.15555117  0.04895426
   0.57424440  0.58991404  0.19871493
   0.74799708  0.74758673  0.30757681
   0.48527257  0.11475744  0.42010252
   0.53369426  0.84809606  0.30817485
   0.24223233  0.25558894  0.41954258
   0.05291709  0.11893112  0.04441430
   0.80547694  0.46653872  0.19402346
   0.97832731  0.62567902  0.30879457
   0.68289750  0.03798501  0.42021663
   0.54613732  0.83090399  0.04118565
   0.24244547  0.25685117  0.19878348
   0.30380293  0.96994040  0.07822368
   0.03370347  0.34772153  0.19850558
   0.18696314  0.53293811  0.30910982
   0.92572903  0.89773112  0.42039959
   0.72206568  0.78411942  0.04950604
   0.48401458  0.11720989  0.19878401
   0.42067755  0.40491366  0.30918657
   0.12264593  0.82241563  0.42060053
   0.99924214  0.59737712  0.04463441
   0.68511146  0.03562116  0.19939656
   0.62924097  0.31256341  0.30912186
   0.37090174  0.67403635  0.42006631
   0.16516637  0.56339176  0.04556280
   0.92274844  0.90158729  0.19969475
   0.48372240  0.00705187  0.04956246
   0.24379732  0.36268588  0.16499234
   0.94512584  0.76596959  0.27540469
   0.68528658  0.13956124  0.38792363
   0.73338868  0.88020485  0.05068023
   0.51333196  0.07693166  0.10668602
   0.44417509  0.26358203  0.16477382
   0.16897652  0.55836059  0.22040026
   0.17924069  0.64972734  0.27589188
   0.93570587  0.88443358  0.33129547
   0.89487418  0.03538508  0.38868122
   0.61638358  0.33001373  0.44994019
   0.65027187  0.08453261  0.10743642
   0.43896559  0.37931281  0.22052255
   0.10966973  0.84042749  0.33167527
   0.86922441  0.17743263  0.44956041
   0.67835113  0.15609582  0.05016175
   0.36460037  0.57474678  0.16512012
   0.10377768  0.95364597  0.27524970
   0.81201853  0.35296725  0.38516657
   0.60926052  0.45117976  0.04557777
   0.39875029  0.63427503  0.10677125
   0.87002359  0.06349348  0.05228192
   0.33758117  0.81459034  0.16568537
   0.05801788  0.11168918  0.21945399
   0.60653376  0.45055258  0.16363029
   0.06209531  0.20910296  0.27212851
   0.80541344  0.46648653  0.32854943
   0.31367883  0.85036627  0.27532816
   0.79630230  0.58180323  0.38617669
   0.54152621  0.83686022  0.45139653
   0.04257604  0.23389857  0.38434139
   0.81505255  0.34060386  0.04780933
   0.55004946  0.62128753  0.10769503
   0.12068584  0.93614301  0.05077080
   0.56256981  0.70805139  0.16063496
   0.30506874  0.96732815  0.21637101
   0.81281578  0.35134660  0.16228957
   0.29036781  0.09146697  0.27396631
   0.04114984  0.33787046  0.32954168
   0.54404367  0.73150493  0.27302597
   0.01004958  0.47681953  0.38625296
   0.73982444  0.75839295  0.44891910
   0.26788174  0.12361345  0.38715998
   0.54927347  0.71942101  0.04581998
   0.27188614  0.12094769  0.16428298
   0.98826351  0.50798968  0.27438187
   0.71431197  0.90034967  0.38815206
   0.05863125  0.22146457  0.04386681
   0.81236515  0.45692692  0.10032239
   0.31750294  0.84150623  0.05352346
   0.79475649  0.58426875  0.16258713
   0.54647339  0.83034134  0.21934045
   0.04952109  0.22510867  0.15995371
   0.50332722  0.98567768  0.27403395
   0.23432426  0.26722829  0.33003701
   0.77299934  0.61620012  0.27440477
   0.24443579  0.35767108  0.38751171
   0.99273520  0.60476336  0.45029750
   0.48222446  0.01366112  0.38696774
   0.78581434  0.60372646  0.04928467
   0.48078842  0.01447229  0.16382720
   0.22039790  0.39251643  0.27565990
   0.92347186  0.79537543  0.38746269
   0.28444861  0.10359099  0.05186438
   0.05400779  0.32183133  0.10758852
   0.00330395  0.48511788  0.16393809
   0.73621799  0.76413568  0.21839849
   0.73642019  0.86848723  0.27511851
   0.49755167  0.09802585  0.33120410
   0.45139348  0.25614101  0.38751093
   0.17525511  0.54864543  0.44975489
   0.99359010  0.49336455  0.04624068
   0.71847901  0.89714805  0.16498866
   0.42812294  0.28853467  0.27575628
   0.15704483  0.68048736  0.38783320
   0.20820529  0.30501216  0.10645997
   0.99420753  0.60390383  0.22003597
   0.67227418  0.05287488  0.33092248
   0.43379208  0.38588193  0.45061949
   0.92597479  0.78643738  0.04971950
   0.23485237  0.37860450  0.05023414
   0.68514541  0.14329761  0.16500127
   0.92233807  0.79503018  0.16478336
   0.38633013  0.54661093  0.27572348
   0.66219161  0.17267677  0.27580414
   0.12901329  0.91993395  0.38856709
   0.36423059  0.57700420  0.38755410
   0.17121522  0.66520743  0.04947032
   0.95656009  0.85452584  0.10746123
   0.43291143  0.27767493  0.04978919
   0.88908586  0.04003452  0.16569717
   0.61302642  0.33482130  0.22042390
   0.16407767  0.67368346  0.16463278
   0.61831636  0.43207987  0.27427654
   0.37607467  0.66665077  0.33071637
   0.87046980  0.07040749  0.27589095
   0.34124299  0.81043570  0.38937140
   0.05787862  0.11288820  0.45134669
   0.60124050  0.45681946  0.38590611
   0.36920112  0.56468251  0.05004879
   0.09334559  0.86250041  0.10722341
   0.12821796  0.92215520  0.16463496
   0.87505350  0.16848769  0.21906064
   0.83022283  0.32563422  0.27401179
   0.55963194  0.60913593  0.33024402
   0.56937190  0.69904505  0.38595174
   0.30334807  0.96976432  0.44801398
   0.95885925  0.98587768  0.52896690
   0.87433981  0.82065203  0.56765465
   0.91666236  0.90328342  0.59623489
   0.83351241  0.73659496  0.64455277
   0.87505723  0.82003744  0.68515103
   0.79176103  0.65332106  0.72190464
   0.83354148  0.73643155  0.76555215
   0.75022692  0.56966937  0.80213376
   0.79125036  0.65340456  0.84312281
   0.70814272  0.48670098  0.89116295
   0.75023066  0.56972896  0.91975042
   0.66717879  0.40253980  0.95881429
   0.08385919  0.23587780  0.52896702
   0.99933982  0.07065204  0.56765463
   0.04166229  0.15328356  0.59623494
   0.95851238  0.98659501  0.64455276
   0.00005712  0.07003764  0.68515102
   0.91676107  0.90332098  0.72190464
   0.95854149  0.98643158  0.76555217
   0.87522702  0.81966919  0.80213377
   0.91625042  0.90340447  0.84312284
   0.83314276  0.73670090  0.89116295
   0.87523075  0.81972881  0.91975045
   0.79217876  0.65253987  0.95881431
   0.45885919  0.98587779  0.52896695
   0.37433974  0.82065216  0.56765465
   0.41666229  0.90328356  0.59623494
   0.33351234  0.73659509  0.64455277
   0.37505709  0.82003768  0.68515103
   0.29176103  0.65332107  0.72190464
   0.33354142  0.73643170  0.76555216
   0.25022700  0.56966922  0.80213378
   0.29125038  0.65340453  0.84312285
   0.20814278  0.48670085  0.89116298
   0.25023069  0.56972887  0.91975048
   0.16717877  0.40253983  0.95881433
   0.20885923  0.48587770  0.52896691
   0.12433976  0.32065213  0.56765468
   0.16666235  0.40328345  0.59623493
   0.08351231  0.23659513  0.64455282
   0.12505715  0.32003758  0.68515104
   0.04176094  0.15332121  0.72190464
   0.08354141  0.23643171  0.76555216
   0.00022693  0.06966935  0.80213379
   0.04125033  0.15340464  0.84312278
   0.95814274  0.98670092  0.89116300
   0.00023068  0.06972890  0.91975048
   0.91717877  0.90253984  0.95881435
   0.58385921  0.23587772  0.52896689
   0.49933981  0.07065204  0.56765466
   0.54166238  0.15328339  0.59623490
   0.45851235  0.98659506  0.64455280
   0.50005721  0.07003747  0.68515104
   0.41676097  0.90332117  0.72190464
   0.45854147  0.98643161  0.76555215
   0.37522690  0.81966942  0.80213377
   0.41625034  0.90340463  0.84312280
   0.33314271  0.73670097  0.89116298
   0.37523070  0.81972891  0.91975045
   0.29217879  0.65253981  0.95881435
   0.33385924  0.73587769  0.52896695
   0.24933984  0.57065198  0.56765462
   0.29166232  0.65328348  0.59623489
   0.20851244  0.48659490  0.64455277
   0.25005718  0.57003751  0.68515102
   0.16676109  0.40332096  0.72190464
   0.20854152  0.48643150  0.76555216
   0.12522693  0.31966935  0.80213376
   0.16625040  0.40340450  0.84312283
   0.08314269  0.23670101  0.89116293
   0.12523065  0.31972895  0.91975042
   0.04217877  0.15253986  0.95881423
   0.70885923  0.48587772  0.52896703
   0.62433982  0.32065203  0.56765461
   0.66666231  0.40328352  0.59623491
   0.58351242  0.23659493  0.64455275
   0.62505718  0.32003754  0.68515101
   0.54176106  0.15332098  0.72190464
   0.58354154  0.23643150  0.76555217
   0.50022695  0.06966928  0.80213377
   0.54125042  0.15340446  0.84312283
   0.45814273  0.98670096  0.89116294
   0.50023069  0.06972888  0.91975045
   0.41717874  0.90253991  0.95881426
   0.83385923  0.73587773  0.52896690
   0.74933977  0.57065213  0.56765466
   0.79166230  0.65328353  0.59623494
   0.70851233  0.48659512  0.64455282
   0.75005709  0.57003767  0.68515104
   0.66676098  0.40332115  0.72190464
   0.70854143  0.48643170  0.76555216
   0.62522692  0.31966935  0.80213379
   0.66625036  0.40340459  0.84312282
   0.58314276  0.23670089  0.89116299
   0.62523069  0.31972888  0.91975049
   0.54217881  0.15253979  0.95881432
   0.36014858  0.19163720  0.10115588
   0.08320852  0.57909088  0.21029387
   0.80395428  0.96876905  0.32290765
   0.52397319  0.35875454  0.43034287
   0.58213620  0.08081969  0.10183981
   0.30399150  0.46886316  0.21056690
   0.02453474  0.86010326  0.32308820
   0.74551524  0.24970649  0.43035865
   0.46940431  0.63356486  0.10194338
   0.18930874  0.02731508  0.20966824
   0.91789792  0.41034725  0.32108286
   0.64073648  0.79636879  0.42985327
   0.68889825  0.52744727  0.09890926
   0.41844472  0.91056049  0.20927285
   0.14007794  0.29923478  0.32163565
   0.86366854  0.68618003  0.43003748
   0.91979641  0.40900557  0.09871343
   0.64046725  0.79770064  0.20881425
   0.36326743  0.18681916  0.32219491
   0.08371789  0.57665353  0.43001107
   0.13672040  0.30683989  0.10150948
   0.86167953  0.68950405  0.21036242
   0.58323013  0.07748352  0.32268735
   0.30435804  0.46806010  0.43010979
   0.80302418  0.97026035  0.10177143
   0.52453964  0.35883879  0.21056638
   0.24468346  0.75074625  0.32280946
   0.96740100  0.14102886  0.43018529
   0.02383558  0.85918323  0.10225647
   0.74642920  0.24800090  0.21060404
   0.46657518  0.63957922  0.32223113
   0.18882641  0.02828073  0.43011933
   0.24582629  0.74901496  0.10165895
   0.96703681  0.13976851  0.20934960
   0.68843033  0.52887620  0.32134573
   0.41883066  0.90993436  0.43005155
