  30  30   0   0
  0.2009518E+02  0.4457379E-09  0.6303685E-09  0.3034270E-08  0.5000000E-15
  1.000000000000000E-004
  CAR 
 unknown system                          
      7.69062204    -18.91702825  301      3.11879339      1.00000000
    -18.917  0.0000E+00  0.0000E+00
    -18.828  0.0000E+00  0.0000E+00
    -18.740  0.0000E+00  0.0000E+00
    -18.651  0.0000E+00  0.0000E+00
    -18.562  0.0000E+00  0.0000E+00
    -18.474  0.0000E+00  0.0000E+00
    -18.385  0.0000E+00  0.0000E+00
    -18.296  0.1391E-15  0.1234E-16
    -18.207  0.1968E-11  0.1746E-12
    -18.119  0.7782E-08  0.6903E-09
    -18.030  0.6773E-05  0.6014E-06
    -17.941  0.1354E-02  0.1207E-03
    -17.853  0.6724E-01  0.6085E-02
    -17.764  0.9481E+00  0.9017E-01
    -17.675  0.4571E+01  0.4956E+00
    -17.587  0.8774E+01  0.1274E+01
    -17.498  0.6510E+01  0.1851E+01
    -17.409  0.1572E+01  0.1991E+01
    -17.321  0.1048E+00  0.2000E+01
    -17.232  0.1758E-02  0.2000E+01
    -17.143  0.5819E-02  0.2001E+01
    -17.054  0.2133E+00  0.2019E+01
    -16.966  0.2125E+01  0.2208E+01
    -16.877  0.7077E+01  0.2836E+01
    -16.788  0.8894E+01  0.3624E+01
    -16.700  0.3770E+01  0.3959E+01
    -16.611  0.4513E+00  0.3999E+01
    -16.522  0.1357E-01  0.4000E+01
    -16.434  0.9578E-04  0.4000E+01
    -16.345  0.1757E-06  0.4000E+01
    -16.256  0.1783E-04  0.4000E+01
    -16.168  0.3140E-02  0.4000E+01
    -16.079  0.1330E+00  0.4012E+01
    -15.990  0.1551E+01  0.4150E+01
    -15.901  0.6076E+01  0.4689E+01
    -15.813  0.9043E+01  0.5491E+01
    -15.724  0.4862E+01  0.5922E+01
    -15.635  0.8392E+00  0.5996E+01
    -15.547  0.4163E-01  0.6000E+01
    -15.458  0.5356E-03  0.6000E+01
    -15.369  0.1648E-05  0.6000E+01
    -15.281  0.5343E-05  0.6000E+01
    -15.192  0.1307E-02  0.6000E+01
    -15.103  0.7594E-01  0.6007E+01
    -15.015  0.1168E+01  0.6110E+01
    -14.926  0.5597E+01  0.6607E+01
    -14.837  0.9408E+01  0.7441E+01
    -14.748  0.5349E+01  0.7916E+01
    -14.660  0.9084E+00  0.7996E+01
    -14.571  0.4119E-01  0.8000E+01
    -14.482  0.4614E-03  0.8000E+01
    -14.394  0.1212E-05  0.8000E+01
    -14.305  0.7503E-09  0.8000E+01
    -14.216  0.8699E-07  0.8000E+01
    -14.128  0.5389E-04  0.8000E+01
    -14.039  0.7638E-02  0.8001E+01
    -13.950  0.2694E+00  0.8025E+01
    -13.862  0.2871E+01  0.8279E+01
    -13.773  0.1184E+02  0.9329E+01
    -13.684  0.1895E+02  0.1101E+02
    -13.595  0.9724E+01  0.1187E+02
    -13.507  0.1389E+01  0.1200E+02
    -13.418  0.5086E-01  0.1200E+02
    -13.329  0.4495E-03  0.1200E+02
    -13.241  0.2862E-05  0.1200E+02
    -13.152  0.5551E-03  0.1200E+02
    -13.063  0.4021E-01  0.1200E+02
    -12.975  0.8210E+00  0.1208E+02
    -12.886  0.5112E+01  0.1253E+02
    -12.797  0.9872E+01  0.1341E+02
    -12.709  0.5726E+01  0.1391E+02
    -12.620  0.9381E+00  0.1400E+02
    -12.531  0.4022E-01  0.1400E+02
    -12.443  0.4195E-03  0.1400E+02
    -12.354  0.1006E-05  0.1400E+02
    -12.265  0.5341E-09  0.1400E+02
    -12.176  0.6009E-13  0.1400E+02
    -12.088  0.0000E+00  0.1400E+02
    -11.999  0.0000E+00  0.1400E+02
    -11.910  0.0000E+00  0.1400E+02
    -11.822  0.0000E+00  0.1400E+02
    -11.733  0.0000E+00  0.1400E+02
    -11.644  0.0000E+00  0.1400E+02
    -11.556  0.0000E+00  0.1400E+02
    -11.467  0.0000E+00  0.1400E+02
    -11.378  0.0000E+00  0.1400E+02
    -11.290  0.0000E+00  0.1400E+02
    -11.201  0.0000E+00  0.1400E+02
    -11.112  0.0000E+00  0.1400E+02
    -11.023  0.0000E+00  0.1400E+02
    -10.935  0.0000E+00  0.1400E+02
    -10.846  0.0000E+00  0.1400E+02
    -10.757  0.0000E+00  0.1400E+02
    -10.669  0.0000E+00  0.1400E+02
    -10.580  0.0000E+00  0.1400E+02
    -10.491  0.0000E+00  0.1400E+02
    -10.403  0.0000E+00  0.1400E+02
    -10.314  0.0000E+00  0.1400E+02
    -10.225  0.0000E+00  0.1400E+02
    -10.137  0.0000E+00  0.1400E+02
    -10.048  0.0000E+00  0.1400E+02
     -9.959  0.0000E+00  0.1400E+02
     -9.870  0.0000E+00  0.1400E+02
     -9.782  0.0000E+00  0.1400E+02
     -9.693  0.0000E+00  0.1400E+02
     -9.604  0.0000E+00  0.1400E+02
     -9.516  0.0000E+00  0.1400E+02
     -9.427  0.0000E+00  0.1400E+02
     -9.338  0.0000E+00  0.1400E+02
     -9.250  0.0000E+00  0.1400E+02
     -9.161  0.0000E+00  0.1400E+02
     -9.072  0.0000E+00  0.1400E+02
     -8.984  0.0000E+00  0.1400E+02
     -8.895  0.0000E+00  0.1400E+02
     -8.806  0.0000E+00  0.1400E+02
     -8.717  0.0000E+00  0.1400E+02
     -8.629  0.0000E+00  0.1400E+02
     -8.540  0.0000E+00  0.1400E+02
     -8.451  0.0000E+00  0.1400E+02
     -8.363  0.0000E+00  0.1400E+02
     -8.274  0.0000E+00  0.1400E+02
     -8.185  0.0000E+00  0.1400E+02
     -8.097  0.0000E+00  0.1400E+02
     -8.008  0.3338E-14  0.1400E+02
     -7.919  0.5110E-10  0.1400E+02
     -7.831  0.1651E-06  0.1400E+02
     -7.742  0.1154E-03  0.1400E+02
     -7.653  0.1779E-01  0.1400E+02
     -7.564  0.6234E+00  0.1406E+02
     -7.476  0.5170E+01  0.1452E+02
     -7.387  0.1058E+02  0.1545E+02
     -7.298  0.5446E+01  0.1594E+02
     -7.210  0.6926E+00  0.1600E+02
     -7.121  0.2089E-01  0.1600E+02
     -7.032  0.1434E-03  0.1600E+02
     -6.944  0.2174E-06  0.1600E+02
     -6.855  0.1459E-09  0.1600E+02
     -6.766  0.1852E-06  0.1600E+02
     -6.678  0.1016E-03  0.1600E+02
     -6.589  0.1261E-01  0.1600E+02
     -6.500  0.3691E+00  0.1603E+02
     -6.411  0.2767E+01  0.1628E+02
     -6.323  0.6528E+01  0.1686E+02
     -6.234  0.7147E+01  0.1749E+02
     -6.145  0.5746E+01  0.1800E+02
     -6.057  0.5136E+01  0.1846E+02
     -5.968  0.2165E+01  0.1865E+02
     -5.879  0.7481E+00  0.1872E+02
     -5.791  0.2016E+01  0.1889E+02
     -5.702  0.3255E+01  0.1918E+02
     -5.613  0.4457E+01  0.1958E+02
     -5.525  0.1234E+02  0.2067E+02
     -5.436  0.1974E+02  0.2242E+02
     -5.347  0.1254E+02  0.2354E+02
     -5.258  0.5417E+01  0.2402E+02
     -5.170  0.4999E+01  0.2446E+02
     -5.081  0.5848E+01  0.2498E+02
     -4.992  0.3411E+01  0.2528E+02
     -4.904  0.9151E+00  0.2536E+02
     -4.815  0.2197E+01  0.2556E+02
     -4.726  0.3977E+01  0.2591E+02
     -4.638  0.4849E+01  0.2634E+02
     -4.549  0.6816E+01  0.2694E+02
     -4.460  0.6033E+01  0.2748E+02
     -4.372  0.4362E+01  0.2787E+02
     -4.283  0.2296E+01  0.2807E+02
     -4.194  0.3552E+01  0.2838E+02
     -4.105  0.5785E+01  0.2890E+02
     -4.017  0.4196E+01  0.2927E+02
     -3.928  0.2737E+01  0.2951E+02
     -3.839  0.6154E+01  0.3006E+02
     -3.751  0.7923E+01  0.3076E+02
     -3.662  0.5951E+01  0.3129E+02
     -3.573  0.4643E+01  0.3170E+02
     -3.485  0.5227E+01  0.3216E+02
     -3.396  0.6396E+01  0.3273E+02
     -3.307  0.1043E+02  0.3366E+02
     -3.219  0.1227E+02  0.3474E+02
     -3.130  0.7097E+01  0.3537E+02
     -3.041  0.5367E+01  0.3585E+02
     -2.952  0.7834E+01  0.3655E+02
     -2.864  0.7779E+01  0.3724E+02
     -2.775  0.5314E+01  0.3771E+02
     -2.686  0.4344E+01  0.3809E+02
     -2.598  0.6479E+01  0.3867E+02
     -2.509  0.7044E+01  0.3929E+02
     -2.420  0.3924E+01  0.3964E+02
     -2.332  0.4461E+01  0.4003E+02
     -2.243  0.4736E+01  0.4045E+02
     -2.154  0.2429E+01  0.4067E+02
     -2.066  0.3303E+01  0.4096E+02
     -1.977  0.7341E+01  0.4161E+02
     -1.888  0.7273E+01  0.4226E+02
     -1.799  0.6904E+01  0.4287E+02
     -1.711  0.7920E+01  0.4357E+02
     -1.622  0.8397E+01  0.4432E+02
     -1.533  0.8152E+01  0.4504E+02
     -1.445  0.6071E+01  0.4558E+02
     -1.356  0.5244E+01  0.4605E+02
     -1.267  0.7775E+01  0.4674E+02
     -1.179  0.9191E+01  0.4755E+02
     -1.090  0.5086E+01  0.4800E+02
     -1.001  0.3887E+01  0.4835E+02
     -0.913  0.6787E+01  0.4895E+02
     -0.824  0.8311E+01  0.4969E+02
     -0.735  0.5295E+01  0.5015E+02
     -0.646  0.5116E+01  0.5061E+02
     -0.558  0.4391E+01  0.5100E+02
     -0.469  0.6227E+01  0.5155E+02
     -0.380  0.1078E+02  0.5251E+02
     -0.292  0.1560E+02  0.5389E+02
     -0.203  0.1663E+02  0.5537E+02
     -0.114  0.1397E+02  0.5660E+02
     -0.026  0.1194E+02  0.5766E+02
      0.063  0.6305E+01  0.5822E+02
      0.152  0.3691E+01  0.5855E+02
      0.240  0.4987E+01  0.5899E+02
      0.329  0.7207E+01  0.5963E+02
      0.418  0.8906E+01  0.6042E+02
      0.507  0.9779E+01  0.6129E+02
      0.595  0.1209E+02  0.6236E+02
      0.684  0.1593E+02  0.6377E+02
      0.773  0.1457E+02  0.6507E+02
      0.861  0.1305E+02  0.6622E+02
      0.950  0.1594E+02  0.6764E+02
      1.039  0.1697E+02  0.6914E+02
      1.127  0.8945E+01  0.6994E+02
      1.216  0.5219E+01  0.7040E+02
      1.305  0.8653E+01  0.7117E+02
      1.393  0.9205E+01  0.7198E+02
      1.482  0.6067E+01  0.7252E+02
      1.571  0.7528E+01  0.7319E+02
      1.660  0.7163E+01  0.7382E+02
      1.748  0.3171E+01  0.7410E+02
      1.837  0.5827E+01  0.7462E+02
      1.926  0.1030E+02  0.7553E+02
      2.014  0.8198E+01  0.7626E+02
      2.103  0.5881E+01  0.7678E+02
      2.192  0.1009E+02  0.7768E+02
      2.280  0.1176E+02  0.7872E+02
      2.369  0.9271E+01  0.7954E+02
      2.458  0.9877E+01  0.8042E+02
      2.546  0.8666E+01  0.8119E+02
      2.635  0.7286E+01  0.8183E+02
      2.724  0.1023E+02  0.8274E+02
      2.813  0.1816E+02  0.8435E+02
      2.901  0.2960E+02  0.8698E+02
      2.990  0.4152E+02  0.9066E+02
      3.079  0.4080E+02  0.9428E+02
      3.167  0.4401E+02  0.9818E+02
      3.256  0.3700E+02  0.1015E+03
      3.345  0.1810E+02  0.1031E+03
      3.433  0.1371E+02  0.1043E+03
      3.522  0.1775E+02  0.1059E+03
      3.611  0.1411E+02  0.1071E+03
      3.699  0.1601E+02  0.1085E+03
      3.788  0.1932E+02  0.1102E+03
      3.877  0.2142E+02  0.1121E+03
      3.966  0.1695E+02  0.1136E+03
      4.054  0.1318E+02  0.1148E+03
      4.143  0.9177E+01  0.1156E+03
      4.232  0.4809E+01  0.1161E+03
      4.320  0.5741E+01  0.1166E+03
      4.409  0.9158E+01  0.1174E+03
      4.498  0.6699E+01  0.1180E+03
      4.586  0.2697E+01  0.1182E+03
      4.675  0.3339E+01  0.1185E+03
      4.764  0.8784E+01  0.1193E+03
      4.852  0.7925E+01  0.1200E+03
      4.941  0.3101E+01  0.1203E+03
      5.030  0.2430E+01  0.1205E+03
      5.119  0.1742E+01  0.1206E+03
      5.207  0.3442E+00  0.1207E+03
      5.296  0.2242E-01  0.1207E+03
      5.385  0.2340E+00  0.1207E+03
      5.473  0.2220E+01  0.1209E+03
      5.562  0.6170E+01  0.1214E+03
      5.651  0.8378E+01  0.1222E+03
      5.739  0.1026E+02  0.1231E+03
      5.828  0.1121E+02  0.1241E+03
      5.917  0.1060E+02  0.1250E+03
      6.005  0.7078E+01  0.1256E+03
      6.094  0.4481E+01  0.1260E+03
      6.183  0.5120E+01  0.1265E+03
      6.272  0.3835E+01  0.1268E+03
      6.360  0.2803E+01  0.1271E+03
      6.449  0.3471E+01  0.1274E+03
      6.538  0.4693E+01  0.1278E+03
      6.626  0.1928E+01  0.1280E+03
      6.715  0.1963E+00  0.1280E+03
      6.804  0.4704E-02  0.1280E+03
      6.892  0.2547E-04  0.1280E+03
      6.981  0.3031E-07  0.1280E+03
      7.070  0.7782E-11  0.1280E+03
      7.158  0.0000E+00  0.1280E+03
      7.247  0.0000E+00  0.1280E+03
      7.336  0.0000E+00  0.1280E+03
      7.425  0.0000E+00  0.1280E+03
      7.513  0.0000E+00  0.1280E+03
      7.602  0.0000E+00  0.1280E+03
      7.691  0.0000E+00  0.1280E+03
