   30   30    1    1
  0.2009518E+02  0.4457378E-09  0.6303685E-09  0.3034270E-08  0.5000000E-15
  1.000000000000000E-004
  CAR 
 unknown system                          
     96      4     64
 
  0.0000000E+00  0.0000000E+00  0.0000000E+00  0.1111111E+00
    1      -17.707590   1.000000
    2      -16.905080   1.000000
    3      -15.888401   1.000000
    4      -14.915319   1.000000
    5      -13.829327   1.000000
    6      -13.730105   1.000000
    7      -12.899666   1.000000
    8       -7.425100   1.000000
    9       -5.817275   1.000000
   10       -5.508741   1.000000
   11       -5.461899   1.000000
   12       -5.443290   1.000000
   13       -4.784752   1.000000
   14       -4.577033   1.000000
   15       -3.879752   1.000000
   16       -3.861009   1.000000
   17       -3.291604   1.000000
   18       -3.063029   1.000000
   19       -2.788173   1.000000
   20       -2.582574   1.000000
   21       -2.338596   1.000000
   22       -1.705557   1.000000
   23       -1.444114   1.000000
   24       -1.163189   1.000000
   25       -0.925135   1.000000
   26       -0.386099   1.000000
   27       -0.247529   1.000000
   28       -0.221061   1.000000
   29       -0.077278   1.000000
   30        0.496652   1.000000
   31        0.547879   1.000000
   32        0.650871   1.000000
   33        0.732370   1.000000
   34        0.945932   1.000000
   35        1.034420   1.000000
   36        1.381070   1.000000
   37        1.605699   1.000000
   38        1.929979   1.000000
   39        2.073002   1.000000
   40        2.433410   1.000000
   41        2.676647   1.000000
   42        2.709385   1.000000
   43        2.771886   1.000000
   44        2.930649   0.996102
   45        2.997218   0.957224
   46        3.014430   0.930018
   47        3.090597   0.654966
   48        3.111037   0.543674
   49        3.120014   0.493116
   50        3.144486   0.358173
   51        3.205688   0.109560
   52        3.209613   0.099503
   53        3.266379   0.018436
   54        3.277710   0.012307
   55        3.665505   0.000000
   56        3.909361   0.000000
   57        3.995106   0.000000
   58        4.166569   0.000000
   59        4.259405   0.000000
   60        4.350368   0.000000
   61        4.723571   0.000000
   62        5.656600   0.000000
   63        5.877626   0.000000
   64        5.947622   0.000000
 
  0.3333333E+00  0.0000000E+00  0.0000000E+00  0.2222222E+00
    1      -17.619403   1.000000
    2      -16.821383   1.000000
    3      -15.810419   1.000000
    4      -14.840981   1.000000
    5      -13.746295   1.000000
    6      -13.708298   1.000000
    7      -12.849355   1.000000
    8       -7.428338   1.000000
    9       -6.383616   1.000000
   10       -5.728020   1.000000
   11       -5.515626   1.000000
   12       -5.451647   1.000000
   13       -5.312435   1.000000
   14       -4.479571   1.000000
   15       -4.418953   1.000000
   16       -3.657167   1.000000
   17       -3.545802   1.000000
   18       -3.240787   1.000000
   19       -2.924888   1.000000
   20       -2.529896   1.000000
   21       -1.974040   1.000000
   22       -1.695636   1.000000
   23       -1.543945   1.000000
   24       -1.278216   1.000000
   25       -0.896297   1.000000
   26       -0.687332   1.000000
   27       -0.355436   1.000000
   28       -0.240128   1.000000
   29       -0.092313   1.000000
   30        0.194165   1.000000
   31        0.426006   1.000000
   32        0.622604   1.000000
   33        0.782235   1.000000
   34        0.951928   1.000000
   35        1.008444   1.000000
   36        1.280531   1.000000
   37        1.575782   1.000000
   38        1.810515   1.000000
   39        2.154079   1.000000
   40        2.218793   1.000000
   41        2.437346   1.000000
   42        2.822292   0.999986
   43        2.891508   0.999346
   44        2.940120   0.994245
   45        2.951893   0.990871
   46        3.002414   0.950102
   47        3.034130   0.884409
   48        3.128536   0.445207
   49        3.154465   0.306964
   50        3.208008   0.103532
   51        3.255463   0.026630
   52        3.472374   0.000000
   53        3.520745   0.000000
   54        3.626223   0.000000
   55        3.690768   0.000000
   56        3.824540   0.000000
   57        3.869012   0.000000
   58        3.961529   0.000000
   59        4.397706   0.000000
   60        4.819124   0.000000
   61        5.676245   0.000000
   62        5.945563   0.000000
   63        6.116949   0.000000
   64        6.283892   0.000000
 
  0.0000000E+00  0.3333333E+00 -0.2220446E-15  0.2222222E+00
    1      -17.659133   1.000000
    2      -16.923769   1.000000
    3      -15.938491   1.000000
    4      -14.944545   1.000000
    5      -13.813875   1.000000
    6      -13.736307   1.000000
    7      -12.851826   1.000000
    8       -7.431995   1.000000
    9       -6.362269   1.000000
   10       -5.474606   1.000000
   11       -5.448929   1.000000
   12       -5.210118   1.000000
   13       -4.784095   1.000000
   14       -4.215300   1.000000
   15       -3.862396   1.000000
   16       -3.481750   1.000000
   17       -3.292832   1.000000
   18       -3.062656   1.000000
   19       -2.786313   1.000000
   20       -2.357114   1.000000
   21       -2.264173   1.000000
   22       -1.899997   1.000000
   23       -1.425527   1.000000
   24       -1.196686   1.000000
   25       -1.017815   1.000000
   26       -0.669474   1.000000
   27       -0.381941   1.000000
   28       -0.251549   1.000000
   29       -0.080041   1.000000
   30        0.054938   1.000000
   31        0.574857   1.000000
   32        0.649753   1.000000
   33        0.719973   1.000000
   34        0.879376   1.000000
   35        0.942332   1.000000
   36        1.207766   1.000000
   37        1.399436   1.000000
   38        1.905421   1.000000
   39        1.989759   1.000000
   40        2.213004   1.000000
   41        2.454045   1.000000
   42        2.792619   0.999998
   43        2.925793   0.996828
   44        2.933615   0.995588
   45        2.973594   0.979985
   46        2.997155   0.957304
   47        3.108629   0.557152
   48        3.109737   0.550954
   49        3.151630   0.321189
   50        3.182718   0.182989
   51        3.449845   0.000001
   52        3.484519   0.000000
   53        3.642847   0.000000
   54        3.694572   0.000000
   55        3.838564   0.000000
   56        3.892659   0.000000
   57        4.044860   0.000000
   58        4.113819   0.000000
   59        4.483776   0.000000
   60        4.761716   0.000000
   61        5.015225   0.000000
   62        5.618197   0.000000
   63        5.736718   0.000000
   64        6.141482   0.000000
 
  0.3333333E+00  0.3333333E+00  0.0000000E+00  0.4444444E+00
    1      -17.574352   1.000000
    2      -16.839271   1.000000
    3      -15.857888   1.000000
    4      -14.869599   1.000000
    5      -13.733419   1.000000
    6      -13.703731   1.000000
    7      -12.810626   1.000000
    8       -7.430443   1.000000
    9       -6.264650   1.000000
   10       -6.107961   1.000000
   11       -5.553594   1.000000
   12       -5.458155   1.000000
   13       -5.102173   1.000000
   14       -4.608434   1.000000
   15       -4.112412   1.000000
   16       -3.770477   1.000000
   17       -3.360833   1.000000
   18       -3.245535   1.000000
   19       -2.948258   1.000000
   20       -2.609043   1.000000
   21       -2.024498   1.000000
   22       -1.792687   1.000000
   23       -1.604268   1.000000
   24       -1.259622   1.000000
   25       -0.865445   1.000000
   26       -0.487679   1.000000
   27       -0.334656   1.000000
   28       -0.231106   1.000000
   29       -0.089115   1.000000
   30        0.290686   1.000000
   31        0.421004   1.000000
   32        0.627766   1.000000
   33        0.786326   1.000000
   34        0.943458   1.000000
   35        1.032692   1.000000
   36        1.312460   1.000000
   37        1.566005   1.000000
   38        1.881987   1.000000
   39        2.205447   1.000000
   40        2.355988   1.000000
   41        2.561288   1.000000
   42        2.730114   1.000000
   43        2.816038   0.999991
   44        2.901809   0.998925
   45        2.917846   0.997757
   46        2.974581   0.979298
   47        2.996278   0.958419
   48        3.103780   0.584070
   49        3.143389   0.363980
   50        3.153417   0.312191
   51        3.204916   0.111621
   52        3.253029   0.028823
   53        3.415258   0.000014
   54        3.489919   0.000000
   55        3.709566   0.000000
   56        3.803403   0.000000
   57        3.842050   0.000000
   58        4.028744   0.000000
   59        4.360988   0.000000
   60        4.735683   0.000000
   61        5.524864   0.000000
   62        5.772243   0.000000
   63        5.871972   0.000000
   64        6.481183   0.000000
