       N       E                     dE             d eps       ncg     rms          rms(c)
DAV:   1     0.267854724349E+03    0.26785E+03   -0.36138E+04   616   0.980E+02
DAV:   2    -0.550048132329E+03   -0.81790E+03   -0.78721E+03   632   0.317E+02
DAV:   3    -0.782388040773E+03   -0.23234E+03   -0.22255E+03   896   0.131E+02
DAV:   4    -0.799829224339E+03   -0.17441E+02   -0.16919E+02   704   0.385E+01
DAV:   5    -0.800150467585E+03   -0.32124E+00   -0.31898E+00   688   0.609E+00    0.606E+02
RMM:   6    -0.366784221793E+03    0.43337E+03   -0.27793E+02   561   0.504E+01    0.252E+02
RMM:   7    -0.514318924913E+03   -0.14753E+03   -0.23476E+02   711   0.441E+01    0.392E+02
RMM:   8    -0.461437739636E+03    0.52881E+02   -0.32294E+01   755   0.163E+01    0.377E+02
RMM:   9    -0.272076111433E+03    0.18936E+03   -0.29675E+01   662   0.129E+01    0.252E+02
RMM:  10    -0.215137745215E+03    0.56938E+02   -0.23802E+01   691   0.114E+01    0.181E+02
RMM:  11    -0.284040322233E+03   -0.68903E+02   -0.41132E+01   819   0.112E+01    0.306E+02
RMM:  12    -0.284812073300E+03   -0.77175E+00   -0.14836E+01   811   0.613E+00    0.310E+02
RMM:  13    -0.280135190720E+03    0.46769E+01   -0.53119E+00   810   0.324E+00    0.310E+02
RMM:  14    -0.259434237583E+03    0.20701E+02   -0.44398E+00   762   0.355E+00    0.304E+02
RMM:  15    -0.273572727674E+03   -0.14138E+02   -0.40547E+00   797   0.260E+00    0.312E+02
RMM:  16    -0.287376606480E+03   -0.13804E+02   -0.42830E+00   807   0.282E+00    0.320E+02
RMM:  17    -0.293373338842E+03   -0.59967E+01   -0.26693E+00   847   0.235E+00    0.325E+02
RMM:  18    -0.305583889366E+03   -0.12211E+02   -0.27854E+00   805   0.256E+00    0.334E+02
RMM:  19    -0.306342435147E+03   -0.75855E+00   -0.16371E+00   876   0.184E+00    0.335E+02
RMM:  20    -0.311394937592E+03   -0.50525E+01   -0.16698E+00   810   0.220E+00    0.336E+02
RMM:  21    -0.342904510374E+03   -0.31510E+02   -0.21122E+00   952   0.479E+00    0.350E+02
RMM:  22    -0.476727707898E+03   -0.13382E+03   -0.12150E+01  1022   0.186E+01    0.405E+02
RMM:  23    -0.649170372501E+03   -0.17244E+03   -0.34000E+01  1024   0.263E+01    0.463E+02
RMM:  24    -0.539850203062E+03    0.10932E+03   -0.45462E+01  1020   0.183E+01    0.432E+02
RMM:  25    -0.495048879172E+03    0.44801E+02   -0.17991E+01   977   0.110E+01    0.419E+02
RMM:  26    -0.389787996955E+03    0.10526E+03   -0.25810E+01  1018   0.108E+01    0.376E+02
RMM:  27    -0.384037600474E+03    0.57504E+01   -0.80950E+00   937   0.535E+00    0.375E+02
RMM:  28    -0.327510584189E+03    0.56527E+02   -0.18521E+01   968   0.665E+00    0.358E+02
RMM:  29    -0.293102181930E+03    0.34408E+02   -0.41319E+01  1020   0.119E+01    0.274E+02
RMM:  30    -0.390333046815E+03   -0.97231E+02   -0.69705E+01  1024   0.175E+01    0.278E+02
RMM:  31    -0.398763506054E+03   -0.84305E+01   -0.12145E+01   989   0.424E+00    0.282E+02
RMM:  32    -0.316514804448E+03    0.82249E+02   -0.15331E+01  1024   0.880E+00    0.287E+02
RMM:  33    -0.263980544934E+03    0.52534E+02   -0.24649E+01  1018   0.958E+00    0.245E+02
RMM:  34    -0.260295454824E+03    0.36851E+01   -0.56187E+00   941   0.372E+00    0.241E+02
RMM:  35    -0.255704990068E+03    0.45905E+01   -0.18718E+00   948   0.299E+00    0.231E+02
RMM:  36    -0.254674453238E+03    0.10305E+01   -0.74168E+00   984   0.538E+00    0.262E+02
RMM:  37    -0.253450694791E+03    0.12238E+01   -0.12100E+00   797   0.156E+00    0.263E+02
RMM:  38    -0.256234200167E+03   -0.27835E+01   -0.66386E-01   821   0.104E+00    0.264E+02
RMM:  39    -0.255672622039E+03    0.56158E+00   -0.34846E-01   814   0.558E-01    0.263E+02
RMM:  40    -0.251245454132E+03    0.44272E+01   -0.58335E-01   928   0.156E+00    0.247E+02
RMM:  41    -0.247670218909E+03    0.35752E+01   -0.56100E+00  1019   0.460E+00    0.208E+02
RMM:  42    -0.239841032750E+03    0.78292E+01   -0.29416E+00  1010   0.381E+00    0.174E+02
RMM:  43    -0.239259693403E+03    0.58134E+00   -0.14046E+00   972   0.183E+00    0.166E+02
RMM:  44    -0.238361692311E+03    0.89800E+00   -0.22010E-01   787   0.485E-01    0.156E+02
RMM:  45    -0.240450760428E+03   -0.20891E+01   -0.29031E-01   907   0.105E+00    0.144E+02
RMM:  46    -0.245708501546E+03   -0.52577E+01   -0.31531E-01   953   0.129E+00    0.176E+02
RMM:  47    -0.249427662843E+03   -0.37192E+01   -0.22912E+00   999   0.302E+00    0.197E+02
RMM:  48    -0.255094117690E+03   -0.56665E+01   -0.25277E+00  1003   0.214E+00    0.203E+02
RMM:  49    -0.248197056822E+03    0.68971E+01   -0.52742E-01   933   0.161E+00    0.195E+02
RMM:  50    -0.247317842122E+03    0.87921E+00   -0.24124E-01   845   0.885E-01    0.194E+02
RMM:  51    -0.269905137680E+03   -0.22587E+02   -0.39061E+01  1024   0.115E+01    0.292E+02
RMM:  52    -0.266891347320E+03    0.30138E+01   -0.13645E+01  1017   0.550E+00    0.284E+02
RMM:  53    -0.269443277274E+03   -0.25519E+01   -0.61916E+00   935   0.375E+00    0.278E+02
RMM:  54    -0.287384637544E+03   -0.17941E+02   -0.54344E+00  1013   0.549E+00    0.275E+02
RMM:  55    -0.263698733687E+03    0.23686E+02   -0.10404E+01   999   0.483E+00    0.253E+02
RMM:  56    -0.460663838072E+03   -0.19697E+03   -0.52885E+01  1024   0.321E+01    0.306E+02
RMM:  57    -0.590061939234E+03   -0.12940E+03   -0.51005E+01  1024   0.287E+01    0.336E+02
RMM:  58    -0.559007978281E+03    0.31054E+02   -0.24603E+01  1024   0.201E+01    0.334E+02
RMM:  59    -0.540386050297E+03    0.18622E+02   -0.25448E+01  1020   0.150E+01    0.330E+02
RMM:  60    -0.545275858502E+03   -0.48898E+01   -0.24962E+01   999   0.129E+01    0.331E+02
RMM:  61    -0.367274799871E+03    0.17800E+03   -0.28414E+02  1024   0.320E+01    0.222E+02
RMM:  62    -0.236686855182E+03    0.13059E+03   -0.87873E+01  1024   0.181E+01    0.230E+02
RMM:  63    -0.267405161863E+03   -0.30718E+02   -0.22994E+01  1022   0.722E+00    0.286E+02
RMM:  64    -0.275553081441E+03   -0.81479E+01   -0.12822E+01   996   0.478E+00    0.273E+02
RMM:  65    -0.260359939419E+03    0.15193E+02   -0.60102E+00   994   0.445E+00    0.257E+02
RMM:  66    -0.276307024710E+03   -0.15947E+02   -0.39138E+01  1024   0.115E+01    0.227E+02
RMM:  67    -0.226006790655E+03    0.50300E+02   -0.25835E+01  1024   0.723E+00    0.204E+02
RMM:  68    -0.225243825770E+03    0.76296E+00   -0.55145E+00   940   0.235E+00    0.208E+02
RMM:  69    -0.227066626119E+03   -0.18228E+01   -0.24063E+00   885   0.110E+00    0.212E+02
RMM:  70    -0.223848482881E+03    0.32181E+01   -0.10144E+00   894   0.101E+00    0.213E+02
RMM:  71    -0.201980434778E+03    0.21868E+02   -0.11368E+01  1024   0.677E+00    0.176E+02
RMM:  72    -0.221221232921E+03   -0.19241E+02   -0.64160E+00  1024   0.495E+00    0.193E+02
RMM:  73    -0.203915060565E+03    0.17306E+02   -0.30896E+00  1016   0.375E+00    0.175E+02
RMM:  74    -0.205000213885E+03   -0.10852E+01   -0.11259E+00   970   0.170E+00    0.168E+02
RMM:  75    -0.204919382389E+03    0.80831E-01   -0.41898E-01   813   0.670E-01    0.168E+02
RMM:  76    -0.226893862475E+03   -0.21974E+02   -0.21894E+01  1024   0.875E+00    0.219E+02
RMM:  77    -0.224501461990E+03    0.23924E+01   -0.11621E+01  1020   0.586E+00    0.142E+02
RMM:  78    -0.223005438208E+03    0.14960E+01   -0.24764E+00  1020   0.333E+00    0.104E+02
RMM:  79    -0.219062956496E+03    0.39425E+01   -0.23262E+00  1024   0.321E+00    0.116E+02
RMM:  80    -0.220445670511E+03   -0.13827E+01   -0.22470E+00  1023   0.245E+00    0.128E+02
RMM:  81    -0.217658940236E+03    0.27867E+01   -0.20420E+00  1018   0.351E+00    0.150E+02
RMM:  82    -0.219727718306E+03   -0.20688E+01   -0.17872E+00  1024   0.296E+00    0.136E+02
RMM:  83    -0.222124647672E+03   -0.23969E+01   -0.59285E-01   980   0.117E+00    0.131E+02
RMM:  84    -0.223539646024E+03   -0.14150E+01   -0.41661E-01   944   0.792E-01    0.132E+02
RMM:  85    -0.223676612609E+03   -0.13697E+00   -0.16851E-01   889   0.479E-01    0.133E+02
RMM:  86    -0.220941295389E+03    0.27353E+01   -0.12581E+00  1000   0.211E+00    0.164E+02
RMM:  87    -0.220872589542E+03    0.68706E-01   -0.28303E-01   977   0.109E+00    0.161E+02
RMM:  88    -0.223026666080E+03   -0.21541E+01   -0.74689E-01  1024   0.193E+00    0.154E+02
RMM:  89    -0.225725906356E+03   -0.26992E+01   -0.88839E-01   999   0.180E+00    0.158E+02
RMM:  90    -0.219924222225E+03    0.58017E+01   -0.89728E-01  1017   0.193E+00    0.151E+02
RMM:  91    -0.206432155169E+03    0.13492E+02   -0.74791E+00  1024   0.544E+00    0.147E+02
RMM:  92    -0.204698423900E+03    0.17337E+01   -0.29567E+00  1021   0.270E+00    0.131E+02
RMM:  93    -0.207565226769E+03   -0.28668E+01   -0.10998E+00  1024   0.226E+00    0.129E+02
RMM:  94    -0.214209991897E+03   -0.66448E+01   -0.11394E+00  1000   0.239E+00    0.127E+02
RMM:  95    -0.214138942574E+03    0.71049E-01   -0.55048E-01   989   0.139E+00    0.124E+02
RMM:  96    -0.225519959304E+03   -0.11381E+02   -0.35678E+00  1024   0.408E+00    0.120E+02
RMM:  97    -0.258480014131E+03   -0.32960E+02   -0.49950E+00  1024   0.424E+00    0.128E+02
RMM:  98    -0.267527317385E+03   -0.90473E+01   -0.75999E-01   969   0.127E+00    0.130E+02
RMM:  99    -0.274524488130E+03   -0.69972E+01   -0.17434E-01   901   0.741E-01    0.129E+02
RMM: 100    -0.286508552350E+03   -0.11984E+02   -0.26927E-01   949   0.100E+00    0.131E+02
RMM: 101    -0.224452369706E+03    0.62056E+02   -0.11377E+01  1024   0.691E+00    0.137E+02
RMM: 102    -0.227226102549E+03   -0.27737E+01   -0.98915E-01  1017   0.194E+00    0.130E+02
RMM: 103    -0.279935987417E+03   -0.52710E+02   -0.60757E+00  1024   0.518E+00    0.130E+02
RMM: 104    -0.319682924451E+03   -0.39747E+02   -0.33083E+00  1022   0.418E+00    0.127E+02
RMM: 105    -0.336465590709E+03   -0.16783E+02   -0.97263E-01  1024   0.204E+00    0.124E+02
RMM: 106    -0.304014907785E+03    0.32451E+02   -0.19819E+01  1024   0.876E+00    0.146E+02
RMM: 107    -0.304892227953E+03   -0.87732E+00   -0.72033E+00  1024   0.605E+00    0.127E+02
RMM: 108    -0.313543731868E+03   -0.86515E+01   -0.70700E-01  1004   0.202E+00    0.125E+02
RMM: 109    -0.337836530442E+03   -0.24293E+02   -0.11680E+00  1020   0.225E+00    0.121E+02
RMM: 110    -0.333105531771E+03    0.47310E+01   -0.20891E-01   925   0.976E-01    0.120E+02
RMM: 111    -0.290048421228E+03    0.43057E+02   -0.36260E+00  1024   0.367E+00    0.106E+02
RMM: 112    -0.286932849843E+03    0.31156E+01   -0.27301E-01   918   0.905E-01    0.104E+02
RMM: 113    -0.286883618254E+03    0.49232E-01   -0.25132E-02   876   0.245E-01    0.104E+02
RMM: 114    -0.281157981580E+03    0.57256E+01   -0.87744E-02   970   0.667E-01    0.106E+02
RMM: 115    -0.305170224782E+03   -0.24012E+02   -0.80435E-01  1013   0.209E+00    0.102E+02
RMM: 116    -0.282410033725E+03    0.22760E+02   -0.14597E+01  1024   0.730E+00    0.134E+02
RMM: 117    -0.253441893674E+03    0.28968E+02   -0.83783E+00  1024   0.578E+00    0.141E+02
RMM: 118    -0.215155541552E+03    0.38286E+02   -0.42478E+00  1024   0.403E+00    0.133E+02
RMM: 119    -0.250434317954E+03   -0.35279E+02   -0.29451E+00  1023   0.371E+00    0.116E+02
RMM: 120    -0.236724586473E+03    0.13710E+02   -0.68681E-01  1003   0.169E+00    0.107E+02
RMM: 121    -0.386089833453E+03   -0.14937E+03   -0.35670E+01  1024   0.123E+01    0.103E+02
RMM: 122    -0.257316882255E+03    0.12877E+03   -0.11239E+01  1024   0.732E+00    0.921E+01
RMM: 123    -0.255070696371E+03    0.22462E+01   -0.44982E-01   979   0.190E+00    0.870E+01
RMM: 124    -0.248309072593E+03    0.67616E+01   -0.22235E-01   985   0.108E+00    0.808E+01
RMM: 125    -0.239988103676E+03    0.83210E+01   -0.35007E-01  1000   0.169E+00    0.840E+01
RMM: 126    -0.201906445377E+03    0.38082E+02   -0.76990E+00  1024   0.506E+00    0.997E+01
RMM: 127    -0.206298650372E+03   -0.43922E+01   -0.77088E+00  1024   0.447E+00    0.998E+01
RMM: 128    -0.207218246645E+03   -0.91960E+00   -0.43146E+00  1024   0.414E+00    0.822E+01
RMM: 129    -0.205159097584E+03    0.20591E+01   -0.75516E-01  1024   0.198E+00    0.739E+01
RMM: 130    -0.205809864804E+03   -0.65077E+00   -0.10199E+00  1024   0.171E+00    0.649E+01
RMM: 131    -0.204049564194E+03    0.17603E+01   -0.12134E+00  1024   0.235E+00    0.565E+01
RMM: 132    -0.202223285983E+03    0.18263E+01   -0.16242E+00   994   0.207E+00    0.547E+01
RMM: 133    -0.204700600488E+03   -0.24773E+01   -0.28839E+00  1024   0.321E+00    0.673E+01
RMM: 134    -0.194622147670E+03    0.10078E+02   -0.11394E+00  1000   0.204E+00    0.572E+01
RMM: 135    -0.201673311813E+03   -0.70512E+01   -0.11658E+00   996   0.190E+00    0.708E+01
RMM: 136    -0.199289606615E+03    0.23837E+01   -0.13088E+01  1024   0.650E+00    0.666E+01
RMM: 137    -0.192493217758E+03    0.67964E+01   -0.16860E+00  1007   0.330E+00    0.607E+01
RMM: 138    -0.194167168476E+03   -0.16740E+01   -0.30319E-01  1021   0.163E+00    0.572E+01
RMM: 139    -0.195041400012E+03   -0.87423E+00   -0.37789E-01  1011   0.136E+00    0.511E+01
RMM: 140    -0.195707707901E+03   -0.66631E+00   -0.17520E-01   960   0.884E-01    0.499E+01
RMM: 141    -0.197838104224E+03   -0.21304E+01   -0.48169E-01   993   0.133E+00    0.526E+01
RMM: 142    -0.197091872804E+03    0.74623E+00   -0.89219E-02   916   0.952E-01    0.515E+01
RMM: 143    -0.197323481596E+03   -0.23161E+00   -0.87311E-02   909   0.970E-01    0.520E+01
RMM: 144    -0.201211927541E+03   -0.38884E+01   -0.13406E+00   986   0.175E+00    0.573E+01
RMM: 145    -0.200931701071E+03    0.28023E+00   -0.19255E-01   919   0.975E-01    0.605E+01
RMM: 146    -0.198147567001E+03    0.27841E+01   -0.34644E-01   932   0.924E-01    0.544E+01
RMM: 147    -0.197156599782E+03    0.99097E+00   -0.21054E-01   935   0.804E-01    0.571E+01
RMM: 148    -0.196757758561E+03    0.39884E+00   -0.16544E-01   929   0.918E-01    0.584E+01
RMM: 149    -0.197291018453E+03   -0.53326E+00   -0.63776E-02   899   0.950E-01    0.532E+01
RMM: 150    -0.195275788150E+03    0.20152E+01   -0.22062E-01   941   0.103E+00
   1 F= -.19527579E+03 E0= -.19516483E+03  d E =-.221914E+00
