 vasp.6.2.1 16May21 (build Dec 23 2021 00:35:04) complex                        
  
 executed on             LinuxIFC date 2023.03.08  11:53:58
 running on  128 total cores
 distrk:  each k-point on  128 cores,    1 groups
 distr:  one band on NCORE=  16 cores,    8 groups


--------------------------------------------------------------------------------------------------------


 INCAR:
   ENCUT = 400.000000
   KSPACING = 0.500000
   SIGMA = 0.100000
   EDIFF = 1.00e-08
   EDIFFG = -1.00e-02
   ALGO = Fast
   GGA = PE
   PREC = Normal
   IBRION = -1
   IDIPOL = 3
   ISIF = 3
   ISMEAR = 0
   ISPIN = 0
   LMAXMIX = 6
   NELM = 150
   NPAR = 8
   NSW = 0
   NWRITE = 1
   DIPOL = 0.2573 0.7427 0.5087
   KGAMMA = .TRUE.
   LASPH = .TRUE.
   LCHARG = .FALSE.
   LDIPOL = .TRUE.
   LWAVE = .FALSE.
   LREAL = AUTO

 POTCAR:    PAW_PBE Na 08Apr2002                  
 POTCAR:    PAW_PBE O 08Apr2002                   
 POTCAR:    PAW_PBE Cl 06Sep2000                  
 POTCAR:    PAW_PBE Na 08Apr2002                  
  local pseudopotential read in
  partial core-charges read in
  partial kinetic energy density read in
  atomic valenz-charges read in
  non local Contribution for L=           0  read in
    real space projection operators read in
  non local Contribution for L=           0  read in
    real space projection operators read in
  non local Contribution for L=           1  read in
    real space projection operators read in
    PAW grid and wavefunctions read in
 
   number of l-projection  operators is LMAX  =           3
   number of lm-projection operators is LMMAX =           5
 
 POTCAR:    PAW_PBE O 08Apr2002                   
  local pseudopotential read in
  partial core-charges read in
  partial kinetic energy density read in
  kinetic energy density of atom read in
  atomic valenz-charges read in
  non local Contribution for L=           0  read in
    real space projection operators read in
  non local Contribution for L=           0  read in
    real space projection operators read in
  non local Contribution for L=           1  read in
    real space projection operators read in
  non local Contribution for L=           1  read in
    real space projection operators read in
    PAW grid and wavefunctions read in
 
   number of l-projection  operators is LMAX  =           4
   number of lm-projection operators is LMMAX =           8
 
 POTCAR:    PAW_PBE Cl 06Sep2000                  
  local pseudopotential read in
  partial core-charges read in
  partial kinetic energy density read in
  atomic valenz-charges read in
  non local Contribution for L=           0  read in
    real space projection operators read in
  non local Contribution for L=           0  read in
    real space projection operators read in
  non local Contribution for L=           1  read in
    real space projection operators read in
  non local Contribution for L=           1  read in
    real space projection operators read in
    PAW grid and wavefunctions read in
 
   number of l-projection  operators is LMAX  =           4
   number of lm-projection operators is LMMAX =           8
 
 Optimization of the real space projectors (new method)

 maximal supplied QI-value         = 17.01
 optimisation between [QCUT,QGAM] = [ 10.20, 20.41] = [ 29.16,116.64] Ry 
 Optimized for a Real-space Cutoff    1.19 Angstroem

   l    n(q)    QCUT    max X(q) W(low)/X(q) W(high)/X(q)  e(spline) 
   0      7    10.205    45.123    0.22E-03    0.82E-03    0.11E-06
   0      7    10.205    12.364    0.17E-03    0.61E-03    0.75E-07
   1      7    10.205     8.302    0.37E-03    0.15E-03    0.27E-07
 Optimization of the real space projectors (new method)

 maximal supplied QI-value         = 24.76
 optimisation between [QCUT,QGAM] = [ 10.15, 20.30] = [ 28.85,115.39] Ry 
 Optimized for a Real-space Cutoff    1.38 Angstroem

   l    n(q)    QCUT    max X(q) W(low)/X(q) W(high)/X(q)  e(spline) 
   0      8    10.150    20.381    0.22E-03    0.32E-03    0.29E-06
   0      8    10.150    15.268    0.23E-03    0.35E-03    0.30E-06
   1      8    10.150     5.964    0.46E-03    0.53E-03    0.21E-06
   1      8    10.150     5.382    0.38E-03    0.45E-03    0.19E-06
 Optimization of the real space projectors (new method)

 maximal supplied QI-value         = 19.84
 optimisation between [QCUT,QGAM] = [ 10.12, 20.44] = [ 28.68,116.96] Ry 
 Optimized for a Real-space Cutoff    1.23 Angstroem

   l    n(q)    QCUT    max X(q) W(low)/X(q) W(high)/X(q)  e(spline) 
   0      7    10.119   168.010    0.54E-04    0.25E-03    0.48E-07
   0      7    10.119   164.674    0.53E-04    0.25E-03    0.47E-07
   1      7    10.119    69.222    0.45E-03    0.63E-03    0.13E-06
   1      7    10.119    56.786    0.45E-03    0.62E-03    0.13E-06
  PAW_PBE Na 08Apr2002                  :
 energy of atom  1       EATOM=   -5.1581
 kinetic energy error for atom=    0.0001 (will be added to EATOM!!)
  PAW_PBE O 08Apr2002                   :
 energy of atom  2       EATOM= -432.3788
 kinetic energy error for atom=    0.1156 (will be added to EATOM!!)
  PAW_PBE Cl 06Sep2000                  :
 energy of atom  3       EATOM= -409.7259
 kinetic energy error for atom=    0.0089 (will be added to EATOM!!)
 
 
 POSCAR: Na  O Cl
  positions in cartesian coordinates
  No initial velocities read in
 exchange correlation table for  LEXCH =        8
   RHO(1)=    0.500       N(1)  =     2000
   RHO(2)=  100.500       N(2)  =     4000
 


--------------------------------------------------------------------------------------------------------


 ion  position               nearest neighbor table
   1  0.500  0.500  0.280-   6 2.23   4 2.23  19 2.23   3 3.15  25 3.15   2 3.15  25 3.15   2 3.15
                             3 3.15   9 3.15
   2  0.000  0.500  0.353-   4 2.23  19 2.23  26 2.23  19 2.23   4 2.23   5 2.23   9 3.15   1 3.15
                            25 3.15  27 3.15   3 3.15  25 3.15   9 3.15   7 3.15   1 3.15   3 3.15
   3  0.500  1.000  0.280-   6 2.23   4 2.23  19 2.23  25 3.15   1 3.15  25 3.15   2 3.15   1 3.15
                             2 3.15   7 3.15   5 3.86   5 3.86
   4  0.500  0.500  0.353-  19 0.00   2 2.23   9 2.23   1 2.23   3 2.23   2 2.23  20 2.23   7 2.23
                            26 3.15   6 3.15  26 3.15   5 3.15   6 3.15   5 3.15  12 3.15
   5  0.000  0.500  0.427-   7 2.23  20 2.23  27 2.23   8 2.23   7 2.23  20 2.23  25 2.23   2 2.23
                            12 3.15  10 3.15  26 3.15  28 3.15   6 3.15  26 3.15  12 3.15   4 3.15
   6  0.500  1.000  0.353-   1 2.23  25 2.23   3 2.23   7 2.23  20 2.23  25 2.23   9 2.23   4 3.15
                            26 3.15   5 3.15  26 3.15   4 3.15  10 3.15   5 3.15   2 3.86   2 3.86
   7  0.500  0.500  0.427-  20 0.00   5 2.23  12 2.23  10 2.23  21 2.23   6 2.23   5 2.23  19 2.23
                             4 2.23  27 3.15   9 3.15   8 3.15  27 3.15  25 3.15   2 3.15   8 3.15
   8  0.000  0.500  0.500-  10 2.23  21 2.23  28 2.23   5 2.23  11 2.23  21 2.23  10 2.23  26 2.23
                            15 3.15  13 3.15   7 3.15  27 3.15  29 3.15   9 3.15  27 3.15  15 3.15
   9  0.500  1.000  0.427-   4 2.23  19 2.23  26 2.23  12 2.23  10 2.23  21 2.23  26 2.23   6 2.23
                            27 3.15   7 3.15   2 3.15  27 3.15   8 3.15   2 3.15  13 3.15   7 3.15
  10  0.500  0.500  0.500-  21 0.00   8 2.23  15 2.23   7 2.23  20 2.23  13 2.23  22 2.23   9 2.23
                             8 2.23  28 3.15  12 3.15   5 3.15  11 3.15  28 3.15  26 3.15  11 3.15
  11  0.000  0.500  0.573-  13 2.23  22 2.23  29 2.23   8 2.23  13 2.23  22 2.23  27 2.23  14 2.23
                            18 3.15  28 3.15  10 3.15  12 3.15  18 3.15  16 3.15  28 3.15  30 3.15
  12  0.500  1.000  0.500-   7 2.23  20 2.23  27 2.23   9 2.23  15 2.23  13 2.23  22 2.23  27 2.23
                            10 3.15  28 3.15   5 3.15  11 3.15  28 3.15   5 3.15  10 3.15  11 3.15
  13  0.500  0.500  0.573-  22 0.00  11 2.23  18 2.23  21 2.23  10 2.23  12 2.23  11 2.23  23 2.23
                            16 2.23  29 3.15  15 3.15   8 3.15  29 3.15  27 3.15  14 3.15   9 3.15
  14  0.000  0.500  0.647-  16 2.23  23 2.23  30 2.23  17 2.23  16 2.23  23 2.23  28 2.23  11 2.23
                            29 3.15  15 3.15  29 3.15  13 3.15  15 3.15  13 3.15  27 3.15  18 3.86
  15  0.500  1.000  0.573-  10 2.23  21 2.23  28 2.23  12 2.23  16 2.23  23 2.23  28 2.23  18 2.23
                            13 3.15  29 3.15   8 3.15  14 3.15  29 3.15   8 3.15   7 3.15  13 3.15
  16  0.500  0.500  0.647-  23 0.00  14 2.23  24 2.23  15 2.23  14 2.23  22 2.23  13 2.23  30 3.15
                            18 3.15  17 3.15  30 3.15  28 3.15  11 3.15  17 3.15  18 3.15  12 3.15
  17  0.000  0.500  0.720-  24 2.23  14 2.23  24 2.23  29 2.23  30 3.15  16 3.15  18 3.15  30 3.15
                            16 3.15  18 3.15  28 3.15  15 3.86  15 3.86
  18  0.500  1.000  0.647-  13 2.23  22 2.23  29 2.23  24 2.23  29 2.23  15 2.23  16 3.15  30 3.15
                            11 3.15  17 3.15  30 3.15  11 3.15  16 3.15  17 3.15  28 3.15  10 3.15
  19  0.500  0.500  0.353-   4 0.00   2 2.23   9 2.23   1 2.23   3 2.23   2 2.23   7 2.23
  20  0.500  0.500  0.427-   7 0.00   5 2.23  12 2.23  10 2.23   6 2.23   5 2.23   4 2.23
  21  0.500  0.500  0.500-  10 0.00   8 2.23  15 2.23  13 2.23   7 2.23   9 2.23   8 2.23
  22  0.500  0.500  0.573-  13 0.00  11 2.23  18 2.23  10 2.23  12 2.23  11 2.23  16 2.23
  23  0.500  0.500  0.647-  16 0.00  14 2.23  15 2.23  14 2.23  13 2.23
  24  0.500  0.500  0.720-  17 2.23  16 2.23  18 2.23  17 2.23
  25  0.000  1.000  0.353-   6 2.23   6 2.23   5 2.23  26 2.23   3 3.15   1 3.15   3 3.15   2 3.15
                             1 3.15   2 3.15   7 3.15   7 3.15   9 3.15   8 3.15   9 3.15
  26  0.000  1.000  0.427-   2 2.23   9 2.23  27 2.23   9 2.23   8 2.23  25 2.23   4 3.15   6 3.15
                             5 3.15   4 3.15   5 3.15   6 3.15  10 3.15  10 3.15  12 3.15  11 3.15
  27  0.000  1.000  0.500-   5 2.23  12 2.23  26 2.23  12 2.23  11 2.23  28 2.23   9 3.15   7 3.15
                             9 3.15   8 3.15   2 3.15   7 3.15   8 3.15  13 3.15  13 3.15  15 3.15
  28  0.000  1.000  0.573-   8 2.23  15 2.23  29 2.23  15 2.23  14 2.23  27 2.23  10 3.15  12 3.15
                            11 3.15   5 3.15  10 3.15  12 3.15  16 3.15  11 3.15  16 3.15  18 3.15
  29  0.000  1.000  0.647-  11 2.23  18 2.23  28 2.23  18 2.23  17 2.23  30 2.23  13 3.15  15 3.15
                            14 3.15   8 3.15  13 3.15  14 3.15  15 3.15
  30  0.000  1.000  0.720-  14 2.23  29 2.23  16 3.15  18 3.15  17 3.15  16 3.15  18 3.15  17 3.15
                            11 3.15
 
 -----------------------------------------------------------------------------
|                                                                             |
|           W    W    AA    RRRRR   N    N  II  N    N   GGGG   !!!           |
|           W    W   A  A   R    R  NN   N  II  NN   N  G    G  !!!           |
|           W    W  A    A  R    R  N N  N  II  N N  N  G       !!!           |
|           W WW W  AAAAAA  RRRRR   N  N N  II  N  N N  G  GGG   !            |
|           WW  WW  A    A  R   R   N   NN  II  N   NN  G    G                |
|           W    W  A    A  R    R  N    N  II  N    N   GGGG   !!!           |
|                                                                             |
|     The distance between some ions is very small. Please check the          |
|     nearest-neighbor list in the OUTCAR file.                               |
|     I HOPE YOU KNOW WHAT YOU ARE DOING!                                     |
|                                                                             |
 -----------------------------------------------------------------------------

  LATTYP: Found a simple monoclinic cell.
 ALAT       =     6.3036850495
 B/A-ratio  =     0.7071067812
 C/A-ratio  =     3.4274999944
 COS(beta)  =    -0.1177676530
  
  Lattice vectors:
  
 A1 = (   4.4573784450,  -4.4573784450,   0.0000000000)
 A2 = (  -3.1518425248,  -3.1518425248,   0.0000000000)
 A3 = (  -1.7992147020,   1.7992147020, -21.4555289819)


Analysis of symmetry for initial positions (statically):
=====================================================================
 Subroutine PRICEL returns:
 Original cell was already a primitive cell.
 

 Routine SETGRP: Setting up the symmetry group for a 
 simple monoclinic supercell.


 Subroutine GETGRP returns: Found  2 space group operations
 (whereof  2 operations were pure point group operations)
 out of a pool of  4 trial point group operations.


The static configuration has the point symmetry C_1h.


Analysis of symmetry for dynamics (positions and initial velocities):
=====================================================================
 Subroutine PRICEL returns:
 Original cell was already a primitive cell.
 

 Routine SETGRP: Setting up the symmetry group for a 
 simple monoclinic supercell.


 Subroutine GETGRP returns: Found  2 space group operations
 (whereof  2 operations were pure point group operations)
 out of a pool of  4 trial point group operations.


The dynamic configuration has the point symmetry C_1h.


 Subroutine INISYM returns: Found  2 space group operations
 (whereof  2 operations are pure point group operations),
 and found     1 'primitive' translations


----------------------------------------------------------------------------------------

                                     Primitive cell                                     

  volume of cell :     602.8555

  direct lattice vectors                    reciprocal lattice vectors
    -3.151842525 -3.151842525  0.000000000    -0.158637367 -0.158637367  0.000000000
     4.457378445 -4.457378445  0.000000000     0.112173558 -0.112173558 -0.158637367
    15.171350037-15.171350037 21.455528982     0.000000000  0.000000000  0.046608033

  length of vectors
     4.457378445  6.303685050 30.342700074     0.224347116  0.224347116  0.046608033

  position of ions in fractional coordinates (direct lattice)
     0.500000174  0.499999826  0.279648197
     0.000000100  0.499999826  0.353098798
     0.500000174  0.999999900  0.279648197
     0.500000174  0.499999826  0.353098798
     0.000000100  0.499999826  0.426549399
     0.500000174  0.999999900  0.353098798
     0.500000174  0.499999826  0.426549399
     0.000000100  0.499999826  0.500000000
     0.500000174  0.999999900  0.426549399
     0.500000174  0.499999826  0.500000000
     0.000000100  0.499999826  0.573450601
     0.500000174  0.999999900  0.500000000
     0.500000174  0.499999826  0.573450601
     0.000000100  0.499999826  0.646901202
     0.500000174  0.999999900  0.573450601
     0.500000174  0.499999826  0.646901202
     0.000000100  0.499999826  0.720351803
     0.500000174  0.999999900  0.646901202
     0.500000174  0.499999826  0.353098798
     0.500000174  0.499999826  0.426549399
     0.500000174  0.499999826  0.500000000
     0.500000174  0.499999826  0.573450601
     0.500000174  0.499999826  0.646901202
     0.500000174  0.499999826  0.720351803
     0.000000100  0.999999900  0.353098776
     0.000000100  0.999999900  0.426549377
     0.000000100  0.999999900  0.499999978
     0.000000100  0.999999900  0.573450579
     0.000000100  0.999999900  0.646901180
     0.000000100  0.999999900  0.720351781

  ion indices of the primitive-cell ions
   primitive index   ion index
                 1           1
                 2           2
                 3           3
                 4           4
                 5           5
                 6           6
                 7           7
                 8           8
                 9           9
                10          10
                11          11
                12          12
                13          13
                14          14
                15          15
                16          16
                17          17
                18          18
                19          19
                20          20
                21          21
                22          22
                23          23
                24          24
                25          25
                26          26
                27          27
                28          28
                29          29
                30          30

----------------------------------------------------------------------------------------

 
 -----------------------------------------------------------------------------
|                                                                             |
|           W    W    AA    RRRRR   N    N  II  N    N   GGGG   !!!           |
|           W    W   A  A   R    R  NN   N  II  NN   N  G    G  !!!           |
|           W    W  A    A  R    R  N N  N  II  N N  N  G       !!!           |
|           W WW W  AAAAAA  RRRRR   N  N N  II  N  N N  G  GGG   !            |
|           WW  WW  A    A  R   R   N   NN  II  N   NN  G    G                |
|           W    W  A    A  R    R  N    N  II  N    N   GGGG   !!!           |
|                                                                             |
|     The requested file  could not be found or opened for reading            |
|     k-point information. Automatic k-point generation is used as a          |
|     fallback, which may lead to unwanted results.                           |
|                                                                             |
 -----------------------------------------------------------------------------

 

Automatic generation of k-mesh.
 Grid dimensions derived from KSPACING:
 generate k-points for:    3    3    1

 Generating k-lattice:

  Cartesian coordinates                     Fractional coordinates (reciprocal lattice)
    -0.052879122 -0.052879122  0.000000000     0.333333333  0.000000000  0.000000000
     0.037391186 -0.037391186 -0.052879122     0.000000000  0.333333333 -0.000000000
     0.000000000  0.000000000  0.046608033     0.000000000  0.000000000  1.000000000

  Length of vectors
     0.074782372  0.074782372  0.046608033

  Shift w.r.t. Gamma in fractional coordinates (k-lattice)
     0.000000000  0.000000000  0.000000000

 
 Subroutine IBZKPT returns following result:
 ===========================================
 
 Found      4 irreducible k-points:
 
 Following reciprocal coordinates:
            Coordinates               Weight
  0.000000  0.000000  0.000000      1.000000
  0.333333  0.000000  0.000000      2.000000
  0.000000  0.333333 -0.000000      2.000000
  0.333333  0.333333  0.000000      4.000000
 
 Following cartesian coordinates:
            Coordinates               Weight
  0.000000  0.000000  0.000000      1.000000
 -0.052879 -0.052879  0.000000      2.000000
  0.037391 -0.037391 -0.052879      2.000000
 -0.015488 -0.090270 -0.052879      4.000000
 


--------------------------------------------------------------------------------------------------------




 Dimension of arrays:
   k-points           NKPTS =      4   k-points in BZ     NKDIM =      4   number of bands    NBANDS=     64
   number of dos      NEDOS =    301   number of ions     NIONS =     30
   non local maximal  LDIM  =      4   non local SUM 2l+1 LMDIM =      8
   total plane-waves  NPLWV = 115200
   max r-space proj   IRMAX =   2156   max aug-charges    IRDMAX=   9502
   dimension x,y,z NGX =    24 NGY =   32 NGZ =  150
   dimension x,y,z NGXF=    48 NGYF=   64 NGZF=  300
   support grid    NGXF=    48 NGYF=   64 NGZF=  300
   ions per type =              18   6   6
   NGX,Y,Z   is equivalent  to a cutoff of   8.95,  8.44,  8.22 a.u.
   NGXF,Y,Z  is equivalent  to a cutoff of  17.90, 16.88, 16.44 a.u.

 SYSTEM =  unknown system                          
 POSCAR =  Na  O Cl                                

 Startparameter for this run:
   NWRITE =      1    write-flag & timer
   PREC   = normal    normal or accurate (medium, high low for compatibility)
   ISTART =      0    job   : 0-new  1-cont  2-samecut
   ICHARG =      2    charge: 1-file 2-atom 10-const
   ISPIN  =      1    spin polarized calculation?
   LNONCOLLINEAR =      F non collinear calculations
   LSORBIT =      F    spin-orbit coupling
   INIWAV =      1    electr: 0-lowe 1-rand  2-diag
   LASPH  =      T    aspherical Exc in radial PAW
 Electronic Relaxation 1
   ENCUT  =  400.0 eV  29.40 Ry    5.42 a.u.   7.27 10.28 49.48*2*pi/ulx,y,z
   ENINI  =  400.0     initial cutoff
   ENAUG  =  605.4 eV  augmentation charge cutoff
   NELM   =    150;   NELMIN=  2; NELMDL= -5     # of ELM steps 
   EDIFF  = 0.1E-07   stopping-criterion for ELM
   LREAL  =      T    real-space projection
   NLSPLINE    = F    spline interpolate recip. space projectors
   LCOMPAT=      F    compatible to vasp.4.4
   GGA_COMPAT  = T    GGA compatible to vasp.4.4-vasp.4.6
   LMAXPAW     = -100 max onsite density
   LMAXMIX     =    6 max onsite mixed and CHGCAR
   VOSKOWN=      0    Vosko Wilk Nusair interpolation
   ROPT   =   -0.00050  -0.00050  -0.00050
 Ionic relaxation
   EDIFFG = -.1E-01   stopping-criterion for IOM
   NSW    =      0    number of steps for IOM
   NBLOCK =      1;   KBLOCK =      1    inner block; outer block 
   IBRION =     -1    ionic relax: 0-MD 1-quasi-New 2-CG
   NFREE  =      0    steps in history (QN), initial steepest desc. (CG)
   ISIF   =      3    stress and relaxation
   IWAVPR =     10    prediction:  0-non 1-charg 2-wave 3-comb
   ISYM   =      2    0-nonsym 1-usesym 2-fastsym
   LCORR  =      T    Harris-Foulkes like correction to forces

   POTIM  = 0.5000    time-step for ionic-motion
   TEIN   =    0.0    initial temperature
   TEBEG  =    0.0;   TEEND  =   0.0 temperature during run
   SMASS  =  -3.00    Nose mass-parameter (am)
   estimated Nose-frequenzy (Omega)   =  0.10E-29 period in steps = 0.13E+47 mass=  -0.454E-27a.u.
   SCALEE = 1.0000    scale energy and forces
   NPACO  =    256;   APACO  = 16.0  distance and # of slots for P.C.
   PSTRESS=    0.0 pullay stress

  Mass of Ions in am
   POMASS =  22.99 16.00 35.45
  Ionic Valenz
   ZVAL   =   1.00  6.00  7.00
  Atomic Wigner-Seitz radii
   RWIGS  =  -1.00 -1.00 -1.00
  virtual crystal weights 
   VCA    =   1.00  1.00  1.00
   NELECT =      96.0000    total number of electrons
   NUPDOWN=      -1.0000    fix difference up-down

 DOS related values:
   EMIN   =  10.00;   EMAX   =-10.00  energy-range for DOS
   EFERMI =   0.00
   ISMEAR =     0;   SIGMA  =   0.10  broadening in eV -4-tet -1-fermi 0-gaus

 Electronic relaxation 2 (details)
   IALGO  =     68    algorithm
   LDIAG  =      T    sub-space diagonalisation (order eigenvalues)
   LSUBROT=      F    optimize rotation matrix (better conditioning)
   TURBO    =      0    0=normal 1=particle mesh
   IRESTART =      0    0=no restart 2=restart with 2 vectors
   NREBOOT  =      0    no. of reboots
   NMIN     =      0    reboot dimension
   EREF     =   0.00    reference energy to select bands
   IMIX   =      4    mixing-type and parameters
     AMIX     =   0.40;   BMIX     =  1.00
     AMIX_MAG =   1.60;   BMIX_MAG =  1.00
     AMIN     =   0.10
     WC   =   100.;   INIMIX=   1;  MIXPRE=   1;  MAXMIX= -45

 Intra band minimization:
   WEIMIN = 0.0000     energy-eigenvalue tresh-hold
   EBREAK =  0.39E-10  absolut break condition
   DEPER  =   0.30     relativ break condition  

   TIME   =   0.40     timestep for ELM

  volume/ion in A,a.u.               =      20.10       135.61
  Fermi-wavevector in a.u.,A,eV,Ry     =   0.887348  1.676845 10.713053  0.787387
  Thomas-Fermi vector in A             =   2.008635
 
 Write flags
   LWAVE        =      F    write WAVECAR
   LDOWNSAMPLE  =      F    k-point downsampling of WAVECAR
   LCHARG       =      F    write CHGCAR
   LVTOT        =      F    write LOCPOT, total local potential
   LVHAR        =      F    write LOCPOT, Hartree potential only
   LELF         =      F    write electronic localiz. function (ELF)
   LORBIT       =      0    0 simple, 1 ext, 2 COOP (PROOUT), +10 PAW based schemes


 Dipole corrections
   LMONO  =      F    monopole corrections only (constant potential shift)
   LDIPOL =      T    correct potential (dipole corrections)
   IDIPOL =      3    1-x, 2-y, 3-z, 4-all directions 
   EPSILON=  1.0000000 bulk dielectric constant

 Exchange correlation treatment:
   GGA     =    PE    GGA type
   LEXCH   =     8    internal setting for exchange type
   VOSKOWN=      0    Vosko Wilk Nusair interpolation
   LHFCALC =     F    Hartree Fock is set to
   LHFONE  =     F    Hartree Fock one center treatment
   AEXX    =    0.0000 exact exchange contribution

 Linear response parameters
   LEPSILON=     F    determine dielectric tensor
   LRPA    =     F    only Hartree local field effects (RPA)
   LNABLA  =     F    use nabla operator in PAW spheres
   LVEL    =     F    velocity operator in full k-point grid
   LINTERFAST=   F  fast interpolation
   KINTER  =     0    interpolate to denser k-point grid
   CSHIFT  =0.1000    complex shift for real part using Kramers Kronig
   OMEGAMAX=  -1.0    maximum frequency
   DEG_THRESHOLD= 0.2000000E-02 threshold for treating states as degnerate
   RTIME   =   -0.100 relaxation time in fs
  (WPLASMAI=    0.000 imaginary part of plasma frequency in eV, 0.658/RTIME)
   DFIELD  = 0.0000000 0.0000000 0.0000000 field for delta impulse in time
 
 Orbital magnetization related:
   ORBITALMAG=     F  switch on orbital magnetization
   LCHIMAG   =     F  perturbation theory with respect to B field
   DQ        =  0.001000  dq finite difference perturbation B field
   LLRAUG    =     F  two centre corrections for induced B field



--------------------------------------------------------------------------------------------------------


 Static calculation
 charge density and potential will be updated during run
 non-spin polarized calculation
 RMM-DIIS sequential band-by-band and
  variant of blocked Davidson during initial phase
 perform sub-space diagonalisation
    before iterative eigenvector-optimisation
 modified Broyden-mixing scheme, WC =      100.0
 initial mixing is a Kerker type mixing with AMIX =  0.4000 and BMIX =      1.0000
 Hartree-type preconditioning will be used
 using additional bands           16
 real space projection scheme for non local part
 use partial core corrections
 calculate Harris-corrections to forces 
   (improved forces if not selfconsistent)
 use gradient corrections 
 use of overlap-Matrix (Vanderbilt PP)
 Gauss-broadening in eV      SIGMA  =   0.10


--------------------------------------------------------------------------------------------------------


  energy-cutoff  :      400.00
  volume of cell :      602.86
      direct lattice vectors                 reciprocal lattice vectors
    -3.151842525 -3.151842525  0.000000000    -0.158637367 -0.158637367  0.000000000
     4.457378445 -4.457378445  0.000000000     0.112173558 -0.112173558 -0.158637367
    15.171350037-15.171350037 21.455528982     0.000000000  0.000000000  0.046608033

  length of vectors
     4.457378445  6.303685050 30.342700074     0.224347116  0.224347116  0.046608033


 
 k-points in units of 2pi/SCALE and weight: read from INCAR                         
   0.00000000  0.00000000  0.00000000       0.111
  -0.05287912 -0.05287912  0.00000000       0.222
   0.03739119 -0.03739119 -0.05287912       0.222
  -0.01548794 -0.09027031 -0.05287912       0.444
 
 k-points in reciprocal lattice and weights: read from INCAR                         
   0.00000000  0.00000000  0.00000000       0.111
   0.33333333  0.00000000  0.00000000       0.222
   0.00000000  0.33333333 -0.00000000       0.222
   0.33333333  0.33333333  0.00000000       0.444
 
 position of ions in fractional coordinates (direct lattice) 
   0.50000017  0.49999983  0.27964820
   0.00000010  0.49999983  0.35309880
   0.50000017  0.99999990  0.27964820
   0.50000017  0.49999983  0.35309880
   0.00000010  0.49999983  0.42654940
   0.50000017  0.99999990  0.35309880
   0.50000017  0.49999983  0.42654940
   0.00000010  0.49999983  0.50000000
   0.50000017  0.99999990  0.42654940
   0.50000017  0.49999983  0.50000000
   0.00000010  0.49999983  0.57345060
   0.50000017  0.99999990  0.50000000
   0.50000017  0.49999983  0.57345060
   0.00000010  0.49999983  0.64690120
   0.50000017  0.99999990  0.57345060
   0.50000017  0.49999983  0.64690120
   0.00000010  0.49999983  0.72035180
   0.50000017  0.99999990  0.64690120
   0.50000017  0.49999983  0.35309880
   0.50000017  0.49999983  0.42654940
   0.50000017  0.49999983  0.50000000
   0.50000017  0.49999983  0.57345060
   0.50000017  0.49999983  0.64690120
   0.50000017  0.49999983  0.72035180
   0.00000010  0.99999990  0.35309878
   0.00000010  0.99999990  0.42654938
   0.00000010  0.99999990  0.49999998
   0.00000010  0.99999990  0.57345058
   0.00000010  0.99999990  0.64690118
   0.00000010  0.99999990  0.72035178
 
 position of ions in cartesian coordinates  (Angst):
   4.89540732 -8.04725094  6.00000000
   7.58567359 -7.58567422  7.57592150
   7.12409687-10.27594050  6.00000000
   6.00975210 -9.16159572  7.57592150
   8.70001837 -8.70001900  9.15184299
   8.23844165-11.39028528  7.57592150
   7.12409687-10.27594050  9.15184299
   9.81436315 -9.81436378 10.72776449
   9.35278643-12.50463005  9.15184299
   8.23844165-11.39028528 10.72776449
  10.92870793-10.92870856 12.30368599
  10.46713121-13.61897483 10.72776449
   9.35278643-12.50463005 12.30368599
  12.04305270-12.04305333 13.87960748
  11.58147598-14.73331961 12.30368599
  10.46713121-13.61897483 13.87960748
  13.15739748-13.15739811 15.45552898
  12.69582076-15.84766438 13.87960748
   6.00975210 -9.16159572  7.57592150
   7.12409687-10.27594050  9.15184299
   8.23844165-11.39028528 10.72776449
   9.35278643-12.50463005 12.30368599
  10.46713121-13.61897483 13.87960748
  11.58147598-14.73331961 15.45552898
   9.81436282 -9.81436345  7.57592103
  10.92870759-10.92870822  9.15184252
  12.04305237-12.04305300 10.72776402
  13.15739715-13.15739778 12.30368552
  14.27174193-14.27174256 13.87960702
  15.38608670-15.38608733 15.45552851
 


--------------------------------------------------------------------------------------------------------


 k-point   1 :   0.0000 0.0000 0.0000  plane waves:   10969
 k-point   2 :   0.3333 0.0000 0.0000  plane waves:   10936
 k-point   3 :   0.0000 0.3333-0.0000  plane waves:   10954
 k-point   4 :   0.3333 0.3333 0.0000  plane waves:   10950

 maximum and minimum number of plane-waves per node :       710      667

 maximum number of plane-waves:     10969
 maximum index in each direction: 
   IXMAX=    7   IYMAX=   10   IZMAX=   49
   IXMIN=   -7   IYMIN=  -10   IZMIN=  -49


 real space projection operators:
  total allocation   :       2238.45 KBytes
  max/ min on nodes  :        196.75         97.84


 parallel 3D FFT for wavefunctions:
    minimum data exchange during FFTs selected (reduces bandwidth)
 parallel 3D FFT for charge:
    minimum data exchange during FFTs selected (reduces bandwidth)


 total amount of memory used by VASP MPI-rank0    34196. kBytes
=======================================================================

   base      :      30000. kBytes
   nonlr-proj:       1326. kBytes
   fftplans  :        885. kBytes
   grid      :       1619. kBytes
   one-center:          6. kBytes
   wavefun   :        360. kBytes
 
     INWAV:  cpu time    0.0000: real time    0.0000
 Broyden mixing: mesh for mixing (old mesh)
   NGX = 15   NGY = 21   NGZ = 99
  (NGX  = 48   NGY  = 64   NGZ  =300)
  gives a total of  31185 points

 initial charge density was supplied:
 charge density of overlapping atoms calculated
 number of electron      96.0000000 magnetization 
 keeping initial charge density in first step


--------------------------------------------------------------------------------------------------------


 Maximum index for non-local projection operator          165
 Maximum index for augmentation-charges          565 (set IRDMAX)


--------------------------------------------------------------------------------------------------------


 First call to EWALD:  gamma=   0.210
 Maximum number of real-space cells 5x 5x 1
 Maximum number of reciprocal cells 2x 2x 9

    FEWALD:  cpu time    0.0016: real time    0.0016


--------------------------------------- Iteration      1(   1)  ---------------------------------------


    POTLOK:  cpu time    0.0142: real time    0.0174
    SETDIJ:  cpu time    0.0424: real time    0.0434
     EDDAV:  cpu time    0.2310: real time    0.2397
       DOS:  cpu time    0.0019: real time    0.0019
    --------------------------------------------
      LOOP:  cpu time    0.2895: real time    0.3025

 eigenvalue-minimisations  :   616
 total energy-change (2. order) : 0.2678547E+03  (-0.3613777E+04)
 number of electron      96.0000000 magnetization 
 augmentation part       96.0000000 magnetization 

 DIPCOR: dipole corrections for dipol
 direction  3 min pos     3,
 dipolmoment           0.002609     -0.002609      0.003690 electrons x Angstroem
 Tr[quadrupol]      -605.059580

 energy correction for charged system         0.000000 eV
 dipol+quadrupol energy correction            0.000002 eV
 added-field ion interaction          0.000000 eV  (added to PSCEN)


 Free energy of the ion-electron system (eV)
  ---------------------------------------------------
  alpha Z        PSCENC =        -1.54559097
  Ewald energy   TEWEN  =     12208.49381449
  -Hartree energ DENC   =    -16992.56491503
  -exchange      EXHF   =         0.00000000
  -V(xc)+E(xc)   XCENC  =      -412.16464022
  PAW double counting   =      4748.72083474    -4085.04238193
  entropy T*S    EENTRO =        -0.02094060
  eigenvalues    EBANDS =      -342.74731595
  atomic energy  EATOM  =      5144.72585983
  Solvation  Ediel_sol  =         0.00000000
  ---------------------------------------------------
  free energy    TOTEN  =       267.85472435 eV

  energy without entropy =      267.87566495  energy(sigma->0) =      267.86519465


--------------------------------------------------------------------------------------------------------




--------------------------------------- Iteration      1(   2)  ---------------------------------------


     EDDAV:  cpu time    0.1968: real time    0.1986
       DOS:  cpu time    0.0004: real time    0.0004
    --------------------------------------------
      LOOP:  cpu time    0.1972: real time    0.1990

 eigenvalue-minimisations  :   632
 total energy-change (2. order) :-0.8179029E+03  (-0.7872071E+03)
 number of electron      96.0000000 magnetization 
 augmentation part       96.0000000 magnetization 

 DIPCOR: dipole corrections for dipol
 direction  3 min pos     3,
 dipolmoment           0.002609     -0.002609      0.003690 electrons x Angstroem
 Tr[quadrupol]      -605.059580

 energy correction for charged system         0.000000 eV
 dipol+quadrupol energy correction            0.000002 eV
 added-field ion interaction          0.000000 eV  (added to PSCEN)


 Free energy of the ion-electron system (eV)
  ---------------------------------------------------
  alpha Z        PSCENC =        -1.54559097
  Ewald energy   TEWEN  =     12208.49381449
  -Hartree energ DENC   =    -16992.56491503
  -exchange      EXHF   =         0.00000000
  -V(xc)+E(xc)   XCENC  =      -412.16464022
  PAW double counting   =      4748.72083474    -4085.04238193
  entropy T*S    EENTRO =        -0.03050629
  eigenvalues    EBANDS =     -1160.64060694
  atomic energy  EATOM  =      5144.72585983
  Solvation  Ediel_sol  =         0.00000000
  ---------------------------------------------------
  free energy    TOTEN  =      -550.04813233 eV

  energy without entropy =     -550.01762604  energy(sigma->0) =     -550.03287918


--------------------------------------------------------------------------------------------------------




--------------------------------------- Iteration      1(   3)  ---------------------------------------


     EDDAV:  cpu time    0.2556: real time    0.2559
       DOS:  cpu time    0.0004: real time    0.0004
    --------------------------------------------
      LOOP:  cpu time    0.2560: real time    0.2563

 eigenvalue-minimisations  :   896
 total energy-change (2. order) :-0.2323399E+03  (-0.2225487E+03)
 number of electron      96.0000000 magnetization 
 augmentation part       96.0000000 magnetization 

 DIPCOR: dipole corrections for dipol
 direction  3 min pos     3,
 dipolmoment           0.002609     -0.002609      0.003690 electrons x Angstroem
 Tr[quadrupol]      -605.059580

 energy correction for charged system         0.000000 eV
 dipol+quadrupol energy correction            0.000002 eV
 added-field ion interaction          0.000000 eV  (added to PSCEN)


 Free energy of the ion-electron system (eV)
  ---------------------------------------------------
  alpha Z        PSCENC =        -1.54559097
  Ewald energy   TEWEN  =     12208.49381449
  -Hartree energ DENC   =    -16992.56491503
  -exchange      EXHF   =         0.00000000
  -V(xc)+E(xc)   XCENC  =      -412.16464022
  PAW double counting   =      4748.72083474    -4085.04238193
  entropy T*S    EENTRO =        -0.02708759
  eigenvalues    EBANDS =     -1392.98393407
  atomic energy  EATOM  =      5144.72585983
  Solvation  Ediel_sol  =         0.00000000
  ---------------------------------------------------
  free energy    TOTEN  =      -782.38804077 eV

  energy without entropy =     -782.36095318  energy(sigma->0) =     -782.37449698


--------------------------------------------------------------------------------------------------------




--------------------------------------- Iteration      1(   4)  ---------------------------------------


     EDDAV:  cpu time    0.2065: real time    0.2070
       DOS:  cpu time    0.0004: real time    0.0004
    --------------------------------------------
      LOOP:  cpu time    0.2069: real time    0.2075

 eigenvalue-minimisations  :   704
 total energy-change (2. order) :-0.1744118E+02  (-0.1691871E+02)
 number of electron      96.0000000 magnetization 
 augmentation part       96.0000000 magnetization 

 DIPCOR: dipole corrections for dipol
 direction  3 min pos     3,
 dipolmoment           0.002609     -0.002609      0.003690 electrons x Angstroem
 Tr[quadrupol]      -605.059580

 energy correction for charged system         0.000000 eV
 dipol+quadrupol energy correction            0.000002 eV
 added-field ion interaction          0.000000 eV  (added to PSCEN)


 Free energy of the ion-electron system (eV)
  ---------------------------------------------------
  alpha Z        PSCENC =        -1.54559097
  Ewald energy   TEWEN  =     12208.49381449
  -Hartree energ DENC   =    -16992.56491503
  -exchange      EXHF   =         0.00000000
  -V(xc)+E(xc)   XCENC  =      -412.16464022
  PAW double counting   =      4748.72083474    -4085.04238193
  entropy T*S    EENTRO =        -0.01057121
  eigenvalues    EBANDS =     -1410.44163402
  atomic energy  EATOM  =      5144.72585983
  Solvation  Ediel_sol  =         0.00000000
  ---------------------------------------------------
  free energy    TOTEN  =      -799.82922434 eV

  energy without entropy =     -799.81865313  energy(sigma->0) =     -799.82393873


--------------------------------------------------------------------------------------------------------




--------------------------------------- Iteration      1(   5)  ---------------------------------------


     EDDAV:  cpu time    0.2354: real time    0.2364
       DOS:  cpu time    0.0041: real time    0.0047
    CHARGE:  cpu time    0.0184: real time    0.0198
    MIXING:  cpu time    0.0035: real time    0.0047
    --------------------------------------------
      LOOP:  cpu time    0.2614: real time    0.2657

 eigenvalue-minimisations  :   688
 total energy-change (2. order) :-0.3212432E+00  (-0.3189821E+00)
 number of electron      95.9999824 magnetization 
 augmentation part        9.2953321 magnetization 

 DIPCOR: dipole corrections for dipol
 direction  3 min pos     3,
 dipolmoment           0.002609     -0.002609      0.003690 electrons x Angstroem
 Tr[quadrupol]      -605.059580

 energy correction for charged system         0.000000 eV
 dipol+quadrupol energy correction            0.000002 eV
 added-field ion interaction          0.000000 eV  (added to PSCEN)


 Broyden mixing:
  rms(total) = 0.60609E+02    rms(broyden)= 0.60609E+02
  rms(prec ) = 0.60709E+02
  weight for this iteration     100.00

 Free energy of the ion-electron system (eV)
  ---------------------------------------------------
  alpha Z        PSCENC =        -1.54559097
  Ewald energy   TEWEN  =     12208.49381449
  -Hartree energ DENC   =    -16992.56491503
  -exchange      EXHF   =         0.00000000
  -V(xc)+E(xc)   XCENC  =      -412.16464022
  PAW double counting   =      4748.72083474    -4085.04238193
  entropy T*S    EENTRO =        -0.00955335
  eigenvalues    EBANDS =     -1410.76389513
  atomic energy  EATOM  =      5144.72585983
  Solvation  Ediel_sol  =         0.00000000
  ---------------------------------------------------
  free energy    TOTEN  =      -800.15046759 eV

  energy without entropy =     -800.14091423  energy(sigma->0) =     -800.14569091


--------------------------------------------------------------------------------------------------------




--------------------------------------- Iteration      1(   6)  ---------------------------------------


    POTLOK:  cpu time    0.0164: real time    0.0205
    SETDIJ:  cpu time    0.0452: real time    0.0452
    EDDIAG:  cpu time    0.0478: real time    0.0489
  RMM-DIIS:  cpu time    0.0453: real time    0.0503
    ORTHCH:  cpu time    0.0094: real time    0.0108
       DOS:  cpu time    0.0005: real time    0.0005
    CHARGE:  cpu time    0.0135: real time    0.0135
    MIXING:  cpu time    0.0017: real time    0.0029
    --------------------------------------------
      LOOP:  cpu time    0.1799: real time    0.1926

 eigenvalue-minimisations  :   561
 total energy-change (2. order) : 0.4333662E+03  (-0.2779318E+02)
 number of electron      95.9999809 magnetization 
 augmentation part        0.8203599 magnetization 

 DIPCOR: dipole corrections for dipol
 direction  3 min pos     3,
 dipolmoment           0.669324     -0.669324      0.946568 electrons x Angstroem
 Tr[quadrupol]      -619.122270

 energy correction for charged system         0.000000 eV
 dipol+quadrupol energy correction            0.134470 eV
 added-field ion interaction          0.000000 eV  (added to PSCEN)


 Broyden mixing:
  rms(total) = 0.25160E+02    rms(broyden)= 0.25159E+02
  rms(prec ) = 0.25642E+02
  weight for this iteration     100.00

 eigenvalues of (default mixing * dielectric matrix)
  average eigenvalue GAMMA=   0.7134
  0.7134

 Free energy of the ion-electron system (eV)
  ---------------------------------------------------
  alpha Z        PSCENC =        -1.41112289
  Ewald energy   TEWEN  =     12208.49381449
  -Hartree energ DENC   =    -17631.70896970
  -exchange      EXHF   =         0.00000000
  -V(xc)+E(xc)   XCENC  =      -385.58267292
  PAW double counting   =   2650874.61268878 -2650324.06360555
  entropy T*S    EENTRO =        -0.13365700
  eigenvalues    EBANDS =      -251.71655683
  atomic energy  EATOM  =      5144.72585983
  Solvation  Ediel_sol  =         0.00000000
  ---------------------------------------------------
  free energy    TOTEN  =      -366.78422179 eV

  energy without entropy =     -366.65056480  energy(sigma->0) =     -366.71739329


--------------------------------------------------------------------------------------------------------




--------------------------------------- Iteration      1(   7)  ---------------------------------------


    POTLOK:  cpu time    0.0124: real time    0.0124
    SETDIJ:  cpu time    0.0421: real time    0.0421
    EDDIAG:  cpu time    0.0443: real time    0.0447
  RMM-DIIS:  cpu time    0.0565: real time    0.0570
    ORTHCH:  cpu time    0.0071: real time    0.0071
       DOS:  cpu time    0.0004: real time    0.0004
    CHARGE:  cpu time    0.0128: real time    0.0129
    MIXING:  cpu time    0.0006: real time    0.0006
    --------------------------------------------
      LOOP:  cpu time    0.1762: real time    0.1771

 eigenvalue-minimisations  :   711
 total energy-change (2. order) :-0.1475347E+03  (-0.2347574E+02)
 number of electron      95.9999769 magnetization 
 augmentation part        5.9605026 magnetization 

 DIPCOR: dipole corrections for dipol
 direction  3 min pos     3,
 dipolmoment          -0.729680      0.729680     -1.031923 electrons x Angstroem
 Tr[quadrupol]      -610.685041

 energy correction for charged system         0.000000 eV
 dipol+quadrupol energy correction            0.159815 eV
 added-field ion interaction          0.000000 eV  (added to PSCEN)


 Broyden mixing:
  rms(total) = 0.39175E+02    rms(broyden)= 0.39174E+02
  rms(prec ) = 0.39638E+02
  weight for this iteration     100.00

 eigenvalues of (default mixing * dielectric matrix)
  average eigenvalue GAMMA=   0.3939
  0.7330  0.0549

 Free energy of the ion-electron system (eV)
  ---------------------------------------------------
  alpha Z        PSCENC =        -1.38577817
  Ewald energy   TEWEN  =     12208.49381449
  -Hartree energ DENC   =    -17182.47100824
  -exchange      EXHF   =         0.00000000
  -V(xc)+E(xc)   XCENC  =      -399.23146379
  PAW double counting   =   1437761.36776813 -1437199.14806016
  entropy T*S    EENTRO =        -0.06084499
  eigenvalues    EBANDS =      -846.60921201
  atomic energy  EATOM  =      5144.72585983
  Solvation  Ediel_sol  =         0.00000000
  ---------------------------------------------------
  free energy    TOTEN  =      -514.31892491 eV

  energy without entropy =     -514.25807993  energy(sigma->0) =     -514.28850242


--------------------------------------------------------------------------------------------------------




--------------------------------------- Iteration      1(   8)  ---------------------------------------


    POTLOK:  cpu time    0.0116: real time    0.0116
    SETDIJ:  cpu time    0.0422: real time    0.0422
    EDDIAG:  cpu time    0.0458: real time    0.0460
  RMM-DIIS:  cpu time    0.0601: real time    0.0601
    ORTHCH:  cpu time    0.0064: real time    0.0064
       DOS:  cpu time    0.0005: real time    0.0005
    CHARGE:  cpu time    0.0134: real time    0.0134
    MIXING:  cpu time    0.0006: real time    0.0006
    --------------------------------------------
      LOOP:  cpu time    0.1805: real time    0.1807

 eigenvalue-minimisations  :   755
 total energy-change (2. order) : 0.5288119E+02  (-0.3229417E+01)
 number of electron      95.9999765 magnetization 
 augmentation part        6.1556343 magnetization 

 DIPCOR: dipole corrections for dipol
 direction  3 min pos     3,
 dipolmoment          -0.419633      0.419633     -0.593451 electrons x Angstroem
 Tr[quadrupol]      -612.291156

 energy correction for charged system         0.000000 eV
 dipol+quadrupol energy correction            0.052856 eV
 added-field ion interaction          0.000000 eV  (added to PSCEN)


 Broyden mixing:
  rms(total) = 0.37699E+02    rms(broyden)= 0.37699E+02
  rms(prec ) = 0.38146E+02
  weight for this iteration     100.00

 eigenvalues of (default mixing * dielectric matrix)
  average eigenvalue GAMMA=   0.5492
  0.7355  0.4561  0.4561

 Free energy of the ion-electron system (eV)
  ---------------------------------------------------
  alpha Z        PSCENC =        -1.49273722
  Ewald energy   TEWEN  =     12208.49381449
  -Hartree energ DENC   =    -17200.55087019
  -exchange      EXHF   =         0.00000000
  -V(xc)+E(xc)   XCENC  =      -398.85084613
  PAW double counting   =   1532509.82467624 -1531951.40678484
  entropy T*S    EENTRO =        -0.04882184
  eigenvalues    EBANDS =      -772.13202997
  atomic energy  EATOM  =      5144.72585983
  Solvation  Ediel_sol  =         0.00000000
  ---------------------------------------------------
  free energy    TOTEN  =      -461.43773964 eV

  energy without entropy =     -461.38891779  energy(sigma->0) =     -461.41332871


--------------------------------------------------------------------------------------------------------




--------------------------------------- Iteration      1(   9)  ---------------------------------------


    POTLOK:  cpu time    0.0119: real time    0.0119
    SETDIJ:  cpu time    0.0424: real time    0.0424
    EDDIAG:  cpu time    0.0434: real time    0.0443
  RMM-DIIS:  cpu time    0.0983: real time    0.1523
    ORTHCH:  cpu time    0.0165: real time    0.0165
       DOS:  cpu time    0.0005: real time    0.0005
    CHARGE:  cpu time    0.0137: real time    0.0138
    MIXING:  cpu time    0.0006: real time    0.0006
    --------------------------------------------
      LOOP:  cpu time    0.2273: real time    0.2823

 eigenvalue-minimisations  :   662
 total energy-change (2. order) : 0.1893616E+03  (-0.2967464E+01)
 number of electron      95.9999694 magnetization 
 augmentation part       10.2249378 magnetization 

 DIPCOR: dipole corrections for dipol
 direction  3 min pos     3,
 dipolmoment           0.140090     -0.140090      0.198117 electrons x Angstroem
 Tr[quadrupol]      -618.788968

 energy correction for charged system         0.000000 eV
 dipol+quadrupol energy correction            0.005891 eV
 added-field ion interaction          0.000000 eV  (added to PSCEN)


 Broyden mixing:
  rms(total) = 0.25160E+02    rms(broyden)= 0.25158E+02
  rms(prec ) = 0.25305E+02
  weight for this iteration     100.00

 eigenvalues of (default mixing * dielectric matrix)
  average eigenvalue GAMMA=   0.5762
  0.7065  0.7065  0.6823  0.2096

 Free energy of the ion-electron system (eV)
  ---------------------------------------------------
  alpha Z        PSCENC =        -1.53970231
  Ewald energy   TEWEN  =     12208.49381449
  -Hartree energ DENC   =    -17269.25293279
  -exchange      EXHF   =         0.00000000
  -V(xc)+E(xc)   XCENC  =      -397.80072561
  PAW double counting   =   2006356.52363234 -2005814.00907002
  entropy T*S    EENTRO =        -0.06143914
  eigenvalues    EBANDS =      -499.15554822
  atomic energy  EATOM  =      5144.72585983
  Solvation  Ediel_sol  =         0.00000000
  ---------------------------------------------------
  free energy    TOTEN  =      -272.07611143 eV

  energy without entropy =     -272.01467229  energy(sigma->0) =     -272.04539186


--------------------------------------------------------------------------------------------------------




--------------------------------------- Iteration      1(  10)  ---------------------------------------


    POTLOK:  cpu time    0.0116: real time    0.0120
    SETDIJ:  cpu time    0.0421: real time    0.0422
    EDDIAG:  cpu time    0.0449: real time    0.0450
  RMM-DIIS:  cpu time    0.0651: real time    0.0651
    ORTHCH:  cpu time    0.0072: real time    0.0072
       DOS:  cpu time    0.0004: real time    0.0004
    CHARGE:  cpu time    0.0135: real time    0.0135
    MIXING:  cpu time    0.0006: real time    0.0006
    --------------------------------------------
      LOOP:  cpu time    0.1854: real time    0.1859

 eigenvalue-minimisations  :   691
 total energy-change (2. order) : 0.5693837E+02  (-0.2380155E+01)
 number of electron      95.9999672 magnetization 
 augmentation part        8.9182836 magnetization 

 DIPCOR: dipole corrections for dipol
 direction  3 min pos     3,
 dipolmoment           0.076928     -0.076928      0.108793 electrons x Angstroem
 Tr[quadrupol]      -619.836938

 energy correction for charged system         0.000000 eV
 dipol+quadrupol energy correction            0.001776 eV
 added-field ion interaction          0.000000 eV  (added to PSCEN)


 Broyden mixing:
  rms(total) = 0.18061E+02    rms(broyden)= 0.18059E+02
  rms(prec ) = 0.18246E+02
  weight for this iteration     100.00

 eigenvalues of (default mixing * dielectric matrix)
  average eigenvalue GAMMA=   0.5226
  0.7716  0.7716  0.4538  0.4538  0.1620

 Free energy of the ion-electron system (eV)
  ---------------------------------------------------
  alpha Z        PSCENC =        -1.54381668
  Ewald energy   TEWEN  =     12208.49381449
  -Hartree energ DENC   =    -17352.72532090
  -exchange      EXHF   =         0.00000000
  -V(xc)+E(xc)   XCENC  =      -393.68458777
  PAW double counting   =   2423295.75557627 -2422789.97912645
  entropy T*S    EENTRO =        -0.07880071
  eigenvalues    EBANDS =      -326.10134328
  atomic energy  EATOM  =      5144.72585983
  Solvation  Ediel_sol  =         0.00000000
  ---------------------------------------------------
  free energy    TOTEN  =      -215.13774521 eV

  energy without entropy =     -215.05894451  energy(sigma->0) =     -215.09834486


--------------------------------------------------------------------------------------------------------




--------------------------------------- Iteration      1(  11)  ---------------------------------------


    POTLOK:  cpu time    0.0123: real time    0.0123
    SETDIJ:  cpu time    0.0420: real time    0.0420
    EDDIAG:  cpu time    0.0446: real time    0.0447
  RMM-DIIS:  cpu time    0.0644: real time    0.0644
    ORTHCH:  cpu time    0.0071: real time    0.0071
       DOS:  cpu time    0.0004: real time    0.0004
    CHARGE:  cpu time    0.0130: real time    0.0130
    MIXING:  cpu time    0.0005: real time    0.0005
    --------------------------------------------
      LOOP:  cpu time    0.1844: real time    0.1845

 eigenvalue-minimisations  :   819
 total energy-change (2. order) :-0.6890258E+02  (-0.4113217E+01)
 number of electron      95.9999844 magnetization 
 augmentation part       -0.2285625 magnetization 

 DIPCOR: dipole corrections for dipol
 direction  3 min pos     3,
 dipolmoment           0.653694     -0.653694      0.924463 electrons x Angstroem
 Tr[quadrupol]      -621.084841

 energy correction for charged system         0.000000 eV
 dipol+quadrupol energy correction            0.128263 eV
 added-field ion interaction          0.000000 eV  (added to PSCEN)


 Broyden mixing:
  rms(total) = 0.30609E+02    rms(broyden)= 0.30605E+02
  rms(prec ) = 0.31045E+02
  weight for this iteration     100.00

 eigenvalues of (default mixing * dielectric matrix)
  average eigenvalue GAMMA=   0.4223
  0.7156  0.7156  0.3912  0.3912  0.2321  0.0882

 Free energy of the ion-electron system (eV)
  ---------------------------------------------------
  alpha Z        PSCENC =        -1.41732985
  Ewald energy   TEWEN  =     12208.49381449
  -Hartree energ DENC   =    -17398.83511190
  -exchange      EXHF   =         0.00000000
  -V(xc)+E(xc)   XCENC  =      -392.05245191
  PAW double counting   =   2092155.20206548 -2091670.13565899
  entropy T*S    EENTRO =        -0.10999436
  eigenvalues    EBANDS =      -329.91151502
  atomic energy  EATOM  =      5144.72585983
  Solvation  Ediel_sol  =         0.00000000
  ---------------------------------------------------
  free energy    TOTEN  =      -284.04032223 eV

  energy without entropy =     -283.93032788  energy(sigma->0) =     -283.98532506


--------------------------------------------------------------------------------------------------------




--------------------------------------- Iteration      1(  12)  ---------------------------------------


    POTLOK:  cpu time    0.0113: real time    0.0113
    SETDIJ:  cpu time    0.0424: real time    0.0424
    EDDIAG:  cpu time    0.0442: real time    0.0456
  RMM-DIIS:  cpu time    0.0642: real time    0.0647
    ORTHCH:  cpu time    0.0064: real time    0.0064
       DOS:  cpu time    0.0005: real time    0.0005
    CHARGE:  cpu time    0.0134: real time    0.0134
    MIXING:  cpu time    0.0007: real time    0.0007
    --------------------------------------------
      LOOP:  cpu time    0.1829: real time    0.1849

 eigenvalue-minimisations  :   811
 total energy-change (2. order) :-0.7717511E+00  (-0.1483630E+01)
 number of electron      95.9999833 magnetization 
 augmentation part        0.0909084 magnetization 

 DIPCOR: dipole corrections for dipol
 direction  3 min pos     3,
 dipolmoment           0.776088     -0.776088      1.097555 electrons x Angstroem
 Tr[quadrupol]      -622.217007

 energy correction for charged system         0.000000 eV
 dipol+quadrupol energy correction            0.180790 eV
 added-field ion interaction          0.000000 eV  (added to PSCEN)


 Broyden mixing:
  rms(total) = 0.31004E+02    rms(broyden)= 0.31003E+02
  rms(prec ) = 0.31453E+02
  weight for this iteration     100.00

 eigenvalues of (default mixing * dielectric matrix)
  average eigenvalue GAMMA=   0.4649
  0.7991  0.7991  0.4856  0.4523  0.2831  0.2831  0.1518

 Free energy of the ion-electron system (eV)
  ---------------------------------------------------
  alpha Z        PSCENC =        -1.36480285
  Ewald energy   TEWEN  =     12208.49381449
  -Hartree energ DENC   =    -17385.09658325
  -exchange      EXHF   =         0.00000000
  -V(xc)+E(xc)   XCENC  =      -392.57795714
  PAW double counting   =   2275121.78610277 -2274636.39826767
  entropy T*S    EENTRO =        -0.11972053
  eigenvalues    EBANDS =      -344.26051895
  atomic energy  EATOM  =      5144.72585983
  Solvation  Ediel_sol  =         0.00000000
  ---------------------------------------------------
  free energy    TOTEN  =      -284.81207330 eV

  energy without entropy =     -284.69235277  energy(sigma->0) =     -284.75221303


--------------------------------------------------------------------------------------------------------




--------------------------------------- Iteration      1(  13)  ---------------------------------------


    POTLOK:  cpu time    0.0120: real time    0.0120
    SETDIJ:  cpu time    0.0424: real time    0.0424
    EDDIAG:  cpu time    0.0438: real time    0.0446
  RMM-DIIS:  cpu time    0.0627: real time    0.0627
    ORTHCH:  cpu time    0.0067: real time    0.0067
       DOS:  cpu time    0.0003: real time    0.0003
    CHARGE:  cpu time    0.0128: real time    0.0128
    MIXING:  cpu time    0.0006: real time    0.0006
    --------------------------------------------
      LOOP:  cpu time    0.1813: real time    0.1820

 eigenvalue-minimisations  :   810
 total energy-change (2. order) : 0.4676883E+01  (-0.5311857E+00)
 number of electron      95.9999854 magnetization 
 augmentation part       -0.8397438 magnetization 

 DIPCOR: dipole corrections for dipol
 direction  3 min pos     3,
 dipolmoment           0.704518     -0.704518      0.996340 electrons x Angstroem
 Tr[quadrupol]      -622.207332

 energy correction for charged system         0.000000 eV
 dipol+quadrupol energy correction            0.148983 eV
 added-field ion interaction          0.000000 eV  (added to PSCEN)


 Broyden mixing:
  rms(total) = 0.31037E+02    rms(broyden)= 0.31036E+02
  rms(prec ) = 0.31483E+02
  weight for this iteration     100.00

 eigenvalues of (default mixing * dielectric matrix)
  average eigenvalue GAMMA=   0.4937
  0.9481  0.9481  0.4249  0.4249  0.4537  0.5301  0.1518  0.0682

 Free energy of the ion-electron system (eV)
  ---------------------------------------------------
  alpha Z        PSCENC =        -1.39660978
  Ewald energy   TEWEN  =     12208.49381449
  -Hartree energ DENC   =    -17378.87735684
  -exchange      EXHF   =         0.00000000
  -V(xc)+E(xc)   XCENC  =      -392.58147641
  PAW double counting   =   2340042.94477822 -2339556.54553908
  entropy T*S    EENTRO =        -0.00000000
  eigenvalues    EBANDS =      -346.89866115
  atomic energy  EATOM  =      5144.72585983
  Solvation  Ediel_sol  =         0.00000000
  ---------------------------------------------------
  free energy    TOTEN  =      -280.13519072 eV

  energy without entropy =     -280.13519072  energy(sigma->0) =     -280.13519072


--------------------------------------------------------------------------------------------------------




--------------------------------------- Iteration      1(  14)  ---------------------------------------


    POTLOK:  cpu time    0.0113: real time    0.0113
    SETDIJ:  cpu time    0.0427: real time    0.0427
    EDDIAG:  cpu time    0.0500: real time    0.0519
  RMM-DIIS:  cpu time    0.0606: real time    0.0606
    ORTHCH:  cpu time    0.0063: real time    0.0063
       DOS:  cpu time    0.0005: real time    0.0005
    CHARGE:  cpu time    0.0139: real time    0.0139
    MIXING:  cpu time    0.0007: real time    0.0007
    --------------------------------------------
      LOOP:  cpu time    0.1860: real time    0.1879

 eigenvalue-minimisations  :   762
 total energy-change (2. order) : 0.2070095E+02  (-0.4439751E+00)
 number of electron      95.9999826 magnetization 
 augmentation part        1.7195709 magnetization 

 DIPCOR: dipole corrections for dipol
 direction  3 min pos     3,
 dipolmoment           0.690231     -0.690231      0.976134 electrons x Angstroem
 Tr[quadrupol]      -621.465152

 energy correction for charged system         0.000000 eV
 dipol+quadrupol energy correction            0.143002 eV
 added-field ion interaction          0.000000 eV  (added to PSCEN)


 Broyden mixing:
  rms(total) = 0.30352E+02    rms(broyden)= 0.30352E+02
  rms(prec ) = 0.30706E+02
  weight for this iteration     100.00

 eigenvalues of (default mixing * dielectric matrix)
  average eigenvalue GAMMA=   0.4455
  0.9384  0.9384  0.4382  0.4382  0.5582  0.4355  0.1518  0.0555  0.0555

 Free energy of the ion-electron system (eV)
  ---------------------------------------------------
  alpha Z        PSCENC =        -1.40259110
  Ewald energy   TEWEN  =     12208.49381449
  -Hartree energ DENC   =    -17340.59820857
  -exchange      EXHF   =         0.00000000
  -V(xc)+E(xc)   XCENC  =      -393.54956370
  PAW double counting   =   2569439.54047136 -2568944.96356119
  entropy T*S    EENTRO =        -0.12861085
  eigenvalues    EBANDS =      -371.55184784
  atomic energy  EATOM  =      5144.72585983
  Solvation  Ediel_sol  =         0.00000000
  ---------------------------------------------------
  free energy    TOTEN  =      -259.43423758 eV

  energy without entropy =     -259.30562673  energy(sigma->0) =     -259.36993216


--------------------------------------------------------------------------------------------------------




--------------------------------------- Iteration      1(  15)  ---------------------------------------


    POTLOK:  cpu time    0.0117: real time    0.0117
    SETDIJ:  cpu time    0.0504: real time    0.0504
    EDDIAG:  cpu time    0.0641: real time    0.0812
  RMM-DIIS:  cpu time    0.0711: real time    0.0722
    ORTHCH:  cpu time    0.0063: real time    0.0104
       DOS:  cpu time    0.0046: real time    0.0046
    CHARGE:  cpu time    0.0192: real time    0.0192
    MIXING:  cpu time    0.0007: real time    0.0007
    --------------------------------------------
      LOOP:  cpu time    0.2281: real time    0.2504

 eigenvalue-minimisations  :   797
 total energy-change (2. order) :-0.1413849E+02  (-0.4054674E+00)
 number of electron      95.9999839 magnetization 
 augmentation part        1.1113556 magnetization 

 DIPCOR: dipole corrections for dipol
 direction  3 min pos     3,
 dipolmoment           0.795345     -0.795345      1.124788 electrons x Angstroem
 Tr[quadrupol]      -621.901695

 energy correction for charged system         0.000000 eV
 dipol+quadrupol energy correction            0.189873 eV
 added-field ion interaction          0.000000 eV  (added to PSCEN)


 Broyden mixing:
  rms(total) = 0.31168E+02    rms(broyden)= 0.31167E+02
  rms(prec ) = 0.31574E+02
  weight for this iteration     100.00

 eigenvalues of (default mixing * dielectric matrix)
  average eigenvalue GAMMA=   0.4338
  0.9664  0.9664  0.4254  0.4254  0.5135  0.4586  0.2041  0.1543  0.1221  0.1022

 Free energy of the ion-electron system (eV)
  ---------------------------------------------------
  alpha Z        PSCENC =        -1.35571976
  Ewald energy   TEWEN  =     12208.49381449
  -Hartree energ DENC   =    -17349.55168440
  -exchange      EXHF   =         0.00000000
  -V(xc)+E(xc)   XCENC  =      -393.40927184
  PAW double counting   =   2525643.24056307 -2525151.64438087
  entropy T*S    EENTRO =        -0.07125019
  eigenvalues    EBANDS =      -374.00065801
  atomic energy  EATOM  =      5144.72585983
  Solvation  Ediel_sol  =         0.00000000
  ---------------------------------------------------
  free energy    TOTEN  =      -273.57272767 eV

  energy without entropy =     -273.50147749  energy(sigma->0) =     -273.53710258


--------------------------------------------------------------------------------------------------------




--------------------------------------- Iteration      1(  16)  ---------------------------------------


    POTLOK:  cpu time    0.0149: real time    0.0251
    SETDIJ:  cpu time    0.0425: real time    0.0425
    EDDIAG:  cpu time    0.0499: real time    0.0501
  RMM-DIIS:  cpu time    0.0645: real time    0.0645
    ORTHCH:  cpu time    0.0072: real time    0.0072
       DOS:  cpu time    0.0005: real time    0.0005
    CHARGE:  cpu time    0.0217: real time    0.0244
    MIXING:  cpu time    0.0008: real time    0.0008
    --------------------------------------------
      LOOP:  cpu time    0.2021: real time    0.2152

 eigenvalue-minimisations  :   807
 total energy-change (2. order) :-0.1380388E+02  (-0.4283000E+00)
 number of electron      95.9999846 magnetization 
 augmentation part        0.5742960 magnetization 

 DIPCOR: dipole corrections for dipol
 direction  3 min pos     3,
 dipolmoment           0.906806     -0.906806      1.282418 electrons x Angstroem
 Tr[quadrupol]      -621.988334

 energy correction for charged system         0.000000 eV
 dipol+quadrupol energy correction            0.246821 eV
 added-field ion interaction          0.000000 eV  (added to PSCEN)


 Broyden mixing:
  rms(total) = 0.32043E+02    rms(broyden)= 0.32043E+02
  rms(prec ) = 0.32490E+02
  weight for this iteration     100.00

 eigenvalues of (default mixing * dielectric matrix)
  average eigenvalue GAMMA=   0.4456
  0.9832  0.9832  0.4324  0.4552  0.4552  0.5537  0.4083  0.1967  0.1967  0.1518
  0.0858

 Free energy of the ion-electron system (eV)
  ---------------------------------------------------
  alpha Z        PSCENC =        -1.29877221
  Ewald energy   TEWEN  =     12208.49381449
  -Hartree energ DENC   =    -17353.33713110
  -exchange      EXHF   =         0.00000000
  -V(xc)+E(xc)   XCENC  =      -393.30598416
  PAW double counting   =   2502992.76966750 -2502503.29326758
  entropy T*S    EENTRO =        -0.10449958
  eigenvalues    EBANDS =      -382.02629367
  atomic energy  EATOM  =      5144.72585983
  Solvation  Ediel_sol  =         0.00000000
  ---------------------------------------------------
  free energy    TOTEN  =      -287.37660648 eV

  energy without entropy =     -287.27210690  energy(sigma->0) =     -287.32435669


--------------------------------------------------------------------------------------------------------




--------------------------------------- Iteration      1(  17)  ---------------------------------------


    POTLOK:  cpu time    0.0114: real time    0.0114
    SETDIJ:  cpu time    0.0423: real time    0.0423
    EDDIAG:  cpu time    0.0459: real time    0.0472
  RMM-DIIS:  cpu time    0.0664: real time    0.0670
    ORTHCH:  cpu time    0.0064: real time    0.0064
       DOS:  cpu time    0.0005: real time    0.0005
    CHARGE:  cpu time    0.0136: real time    0.0136
    MIXING:  cpu time    0.0009: real time    0.0009
    --------------------------------------------
      LOOP:  cpu time    0.1874: real time    0.1892

 eigenvalue-minimisations  :   847
 total energy-change (2. order) :-0.5996732E+01  (-0.2669295E+00)
 number of electron      95.9999838 magnetization 
 augmentation part        0.3142592 magnetization 

 DIPCOR: dipole corrections for dipol
 direction  3 min pos     3,
 dipolmoment           0.923649     -0.923649      1.306237 electrons x Angstroem
 Tr[quadrupol]      -622.185230

 energy correction for charged system         0.000000 eV
 dipol+quadrupol energy correction            0.256075 eV
 added-field ion interaction          0.000000 eV  (added to PSCEN)


 Broyden mixing:
  rms(total) = 0.32482E+02    rms(broyden)= 0.32482E+02
  rms(prec ) = 0.32937E+02
  weight for this iteration     100.00

 eigenvalues of (default mixing * dielectric matrix)
  average eigenvalue GAMMA=   0.4851
  0.7373  1.0505  1.0505  0.4932  0.4932  0.6425  0.3713  0.3713  0.2548  0.1509
  0.0886  0.1174

 Free energy of the ion-electron system (eV)
  ---------------------------------------------------
  alpha Z        PSCENC =        -1.28951847
  Ewald energy   TEWEN  =     12208.49381449
  -Hartree energ DENC   =    -17354.69556345
  -exchange      EXHF   =         0.00000000
  -V(xc)+E(xc)   XCENC  =      -393.30169655
  PAW double counting   =   2504376.74189781 -2503887.60401759
  entropy T*S    EENTRO =        -0.11439187
  eigenvalues    EBANDS =      -386.32972304
  atomic energy  EATOM  =      5144.72585983
  Solvation  Ediel_sol  =         0.00000000
  ---------------------------------------------------
  free energy    TOTEN  =      -293.37333884 eV

  energy without entropy =     -293.25894698  energy(sigma->0) =     -293.31614291


--------------------------------------------------------------------------------------------------------




--------------------------------------- Iteration      1(  18)  ---------------------------------------


    POTLOK:  cpu time    0.0120: real time    0.0119
    SETDIJ:  cpu time    0.0423: real time    0.0423
    EDDIAG:  cpu time    0.0443: real time    0.0443
  RMM-DIIS:  cpu time    0.0640: real time    0.0640
    ORTHCH:  cpu time    0.0068: real time    0.0068
       DOS:  cpu time    0.0006: real time    0.0006
    CHARGE:  cpu time    0.0129: real time    0.0130
    MIXING:  cpu time    0.0008: real time    0.0008
    --------------------------------------------
      LOOP:  cpu time    0.1837: real time    0.1837

 eigenvalue-minimisations  :   805
 total energy-change (2. order) :-0.1221055E+02  (-0.2785397E+00)
 number of electron      95.9999837 magnetization 
 augmentation part       -0.1318710 magnetization 

 DIPCOR: dipole corrections for dipol
 direction  3 min pos     3,
 dipolmoment           0.973880     -0.973880      1.377275 electrons x Angstroem
 Tr[quadrupol]      -622.153271

 energy correction for charged system         0.000000 eV
 dipol+quadrupol energy correction            0.284684 eV
 added-field ion interaction          0.000000 eV  (added to PSCEN)


 Broyden mixing:
  rms(total) = 0.33382E+02    rms(broyden)= 0.33382E+02
  rms(prec ) = 0.33829E+02
  weight for this iteration     100.00

 eigenvalues of (default mixing * dielectric matrix)
  average eigenvalue GAMMA=   0.4494
  1.0548  1.0548  0.6152  0.6333  0.4841  0.4841  0.3774  0.3774  0.2391  0.1560
  0.1510  0.1267  0.0879

 Free energy of the ion-electron system (eV)
  ---------------------------------------------------
  alpha Z        PSCENC =        -1.26090865
  Ewald energy   TEWEN  =     12208.49381449
  -Hartree energ DENC   =    -17354.54612826
  -exchange      EXHF   =         0.00000000
  -V(xc)+E(xc)   XCENC  =      -393.33261497
  PAW double counting   =   2525202.99723295 -2524713.57508009
  entropy T*S    EENTRO =        -0.10587465
  eigenvalues    EBANDS =      -398.98019001
  atomic energy  EATOM  =      5144.72585983
  Solvation  Ediel_sol  =         0.00000000
  ---------------------------------------------------
  free energy    TOTEN  =      -305.58388937 eV

  energy without entropy =     -305.47801472  energy(sigma->0) =     -305.53095204


--------------------------------------------------------------------------------------------------------




--------------------------------------- Iteration      1(  19)  ---------------------------------------


    POTLOK:  cpu time    0.0113: real time    0.0113
    SETDIJ:  cpu time    0.0427: real time    0.0427
    EDDIAG:  cpu time    0.0457: real time    0.0457
  RMM-DIIS:  cpu time    0.0682: real time    0.0682
    ORTHCH:  cpu time    0.0063: real time    0.0063
       DOS:  cpu time    0.0006: real time    0.0006
    CHARGE:  cpu time    0.0136: real time    0.0136
    MIXING:  cpu time    0.0008: real time    0.0008
    --------------------------------------------
      LOOP:  cpu time    0.1893: real time    0.1893

 eigenvalue-minimisations  :   876
 total energy-change (2. order) :-0.7585458E+00  (-0.1637051E+00)
 number of electron      95.9999837 magnetization 
 augmentation part       -0.1777100 magnetization 

 DIPCOR: dipole corrections for dipol
 direction  3 min pos     3,
 dipolmoment           0.976832     -0.976832      1.381449 electrons x Angstroem
 Tr[quadrupol]      -622.182714

 energy correction for charged system         0.000000 eV
 dipol+quadrupol energy correction            0.286413 eV
 added-field ion interaction          0.000000 eV  (added to PSCEN)


 Broyden mixing:
  rms(total) = 0.33455E+02    rms(broyden)= 0.33455E+02
  rms(prec ) = 0.33906E+02
  weight for this iteration     100.00

 eigenvalues of (default mixing * dielectric matrix)
  average eigenvalue GAMMA=   0.4189
  1.0456  1.0456  0.6144  0.6322  0.4838  0.4838  0.3733  0.3733  0.2388  0.1511
  0.1292  0.0878  0.1031  0.1031

 Free energy of the ion-electron system (eV)
  ---------------------------------------------------
  alpha Z        PSCENC =        -1.25918041
  Ewald energy   TEWEN  =     12208.49381449
  -Hartree energ DENC   =    -17354.85270776
  -exchange      EXHF   =         0.00000000
  -V(xc)+E(xc)   XCENC  =      -393.33850581
  PAW double counting   =   2525334.66087567 -2524845.27956260
  entropy T*S    EENTRO =        -0.09734197
  eigenvalues    EBANDS =      -399.39568659
  atomic energy  EATOM  =      5144.72585983
  Solvation  Ediel_sol  =         0.00000000
  ---------------------------------------------------
  free energy    TOTEN  =      -306.34243515 eV

  energy without entropy =     -306.24509317  energy(sigma->0) =     -306.29376416


--------------------------------------------------------------------------------------------------------




--------------------------------------- Iteration      1(  20)  ---------------------------------------


    POTLOK:  cpu time    0.0125: real time    0.0125
    SETDIJ:  cpu time    0.0664: real time    0.0672
    EDDIAG:  cpu time    0.1583: real time    0.2666
  RMM-DIIS:  cpu time    0.0641: real time    0.0641
    ORTHCH:  cpu time    0.0070: real time    0.0070
       DOS:  cpu time    0.0004: real time    0.0004
    CHARGE:  cpu time    0.0137: real time    0.0137
    MIXING:  cpu time    0.0010: real time    0.0010
    --------------------------------------------
      LOOP:  cpu time    0.3235: real time    0.4325

 eigenvalue-minimisations  :   810
 total energy-change (2. order) :-0.5052502E+01  (-0.1669771E+00)
 number of electron      95.9999839 magnetization 
 augmentation part       -0.2234042 magnetization 

 DIPCOR: dipole corrections for dipol
 direction  3 min pos     3,
 dipolmoment           1.063855     -1.063855      1.504518 electrons x Angstroem
 Tr[quadrupol]      -622.601231

 energy correction for charged system         0.000000 eV
 dipol+quadrupol energy correction            0.339717 eV
 added-field ion interaction          0.000000 eV  (added to PSCEN)


 Broyden mixing:
  rms(total) = 0.33639E+02    rms(broyden)= 0.33639E+02
  rms(prec ) = 0.34083E+02
  weight for this iteration     100.00

 eigenvalues of (default mixing * dielectric matrix)
  average eigenvalue GAMMA=   0.4540
  1.0585  1.0585  0.6950  0.4514  0.4967  0.4967  0.6021  0.3887  0.3598  0.3598
  0.2361  0.2361  0.1511  0.1325  0.0876

 Free energy of the ion-electron system (eV)
  ---------------------------------------------------
  alpha Z        PSCENC =        -1.20587592
  Ewald energy   TEWEN  =     12208.49381449
  -Hartree energ DENC   =    -17355.65182730
  -exchange      EXHF   =         0.00000000
  -V(xc)+E(xc)   XCENC  =      -393.48281922
  PAW double counting   =   2546894.47621792 -2546403.82467982
  entropy T*S    EENTRO =        -0.05767191
  eigenvalues    EBANDS =      -404.86795564
  atomic energy  EATOM  =      5144.72585983
  Solvation  Ediel_sol  =         0.00000000
  ---------------------------------------------------
  free energy    TOTEN  =      -311.39493759 eV

  energy without entropy =     -311.33726568  energy(sigma->0) =     -311.36610164


--------------------------------------------------------------------------------------------------------




--------------------------------------- Iteration      1(  21)  ---------------------------------------


    POTLOK:  cpu time    0.0113: real time    0.0113
    SETDIJ:  cpu time    0.0421: real time    0.0421
    EDDIAG:  cpu time    0.0439: real time    0.0444
  RMM-DIIS:  cpu time    0.0746: real time    0.0751
    ORTHCH:  cpu time    0.0069: real time    0.0069
       DOS:  cpu time    0.0004: real time    0.0004
    CHARGE:  cpu time    0.0127: real time    0.0127
    MIXING:  cpu time    0.0009: real time    0.0009
    --------------------------------------------
      LOOP:  cpu time    0.1928: real time    0.1938

 eigenvalue-minimisations  :   952
 total energy-change (2. order) :-0.3150957E+02  (-0.2112167E+00)
 number of electron      95.9999837 magnetization 
 augmentation part       -0.5492768 magnetization 

 DIPCOR: dipole corrections for dipol
 direction  3 min pos     3,
 dipolmoment           1.360272     -1.360272      1.923715 electrons x Angstroem
 Tr[quadrupol]      -624.025598

 energy correction for charged system         0.000000 eV
 dipol+quadrupol energy correction            0.555397 eV
 added-field ion interaction          0.000000 eV  (added to PSCEN)


 Broyden mixing:
  rms(total) = 0.35032E+02    rms(broyden)= 0.35031E+02
  rms(prec ) = 0.35511E+02
  weight for this iteration     100.00

 eigenvalues of (default mixing * dielectric matrix)
  average eigenvalue GAMMA=   0.5232
  1.0130  1.2017  1.2017  0.5788  0.6731  0.4803  0.4803  0.5514  0.5514  0.4306
  0.4306  0.2041  0.2041  0.1510  0.0876  0.1317

 Free energy of the ion-electron system (eV)
  ---------------------------------------------------
  alpha Z        PSCENC =        -0.99019559
  Ewald energy   TEWEN  =     12208.49381449
  -Hartree energ DENC   =    -17374.59562417
  -exchange      EXHF   =         0.00000000
  -V(xc)+E(xc)   XCENC  =      -393.25194824
  PAW double counting   =   2572299.38975208 -2571811.04524311
  entropy T*S    EENTRO =        -0.08056061
  eigenvalues    EBANDS =      -415.55036504
  atomic energy  EATOM  =      5144.72585983
  Solvation  Ediel_sol  =         0.00000000
  ---------------------------------------------------
  free energy    TOTEN  =      -342.90451037 eV

  energy without entropy =     -342.82394977  energy(sigma->0) =     -342.86423007


--------------------------------------------------------------------------------------------------------




--------------------------------------- Iteration      1(  22)  ---------------------------------------


    POTLOK:  cpu time    0.0110: real time    0.0110
    SETDIJ:  cpu time    0.0427: real time    0.0427
    EDDIAG:  cpu time    0.0455: real time    0.0456
  RMM-DIIS:  cpu time    0.0793: real time    0.0809
    ORTHCH:  cpu time    0.0062: real time    0.0062
       DOS:  cpu time    0.0005: real time    0.0005
    CHARGE:  cpu time    0.0137: real time    0.0137
    MIXING:  cpu time    0.0010: real time    0.0010
    --------------------------------------------
      LOOP:  cpu time    0.1999: real time    0.2016

 eigenvalue-minimisations  :  1022
[...]
      9      -6.3836      2.00000
     10      -5.7280      2.00000
     11      -5.5156      2.00000
     12      -5.4516      2.00000
     13      -5.3124      2.00000
     14      -4.4796      2.00000
     15      -4.4190      2.00000
     16      -3.6572      2.00000
     17      -3.5458      2.00000
     18      -3.2408      2.00000
     19      -2.9249      2.00000
     20      -2.5299      2.00000
     21      -1.9740      2.00000
     22      -1.6956      2.00000
     23      -1.5439      2.00000
     24      -1.2782      2.00000
     25      -0.8963      2.00000
     26      -0.6873      2.00000
     27      -0.3554      2.00000
     28      -0.2401      2.00000
     29      -0.0923      2.00000
     30       0.1942      2.00000
     31       0.4260      2.00000
     32       0.6226      2.00000
     33       0.7822      2.00000
     34       0.9519      2.00000
     35       1.0084      2.00000
     36       1.2805      2.00000
     37       1.5758      2.00000
     38       1.8105      2.00000
     39       2.1541      2.00000
     40       2.2188      2.00000
     41       2.4373      2.00000
     42       2.8223      1.99997
     43       2.8915      1.99869
     44       2.9401      1.98849
     45       2.9519      1.98174
     46       3.0024      1.90020
     47       3.0341      1.76882
     48       3.1285      0.89041
     49       3.1545      0.61393
     50       3.2080      0.20706
     51       3.2555      0.05326
     52       3.4724      0.00000
     53       3.5207      0.00000
     54       3.6262      0.00000
     55       3.6908      0.00000
     56       3.8245      0.00000
     57       3.8690      0.00000
     58       3.9615      0.00000
     59       4.3977      0.00000
     60       4.8191      0.00000
     61       5.6762      0.00000
     62       5.9456      0.00000
     63       6.1169      0.00000
     64       6.2839      0.00000

 k-point     3 :       0.0000    0.3333   -0.0000
  band No.  band energies     occupation 
      1     -17.6591      2.00000
      2     -16.9238      2.00000
      3     -15.9385      2.00000
      4     -14.9445      2.00000
      5     -13.8139      2.00000
      6     -13.7363      2.00000
      7     -12.8518      2.00000
      8      -7.4320      2.00000
      9      -6.3623      2.00000
     10      -5.4746      2.00000
     11      -5.4489      2.00000
     12      -5.2101      2.00000
     13      -4.7841      2.00000
     14      -4.2153      2.00000
     15      -3.8624      2.00000
     16      -3.4818      2.00000
     17      -3.2928      2.00000
     18      -3.0627      2.00000
     19      -2.7863      2.00000
     20      -2.3571      2.00000
     21      -2.2642      2.00000
     22      -1.9000      2.00000
     23      -1.4255      2.00000
     24      -1.1967      2.00000
     25      -1.0178      2.00000
     26      -0.6695      2.00000
     27      -0.3819      2.00000
     28      -0.2515      2.00000
     29      -0.0800      2.00000
     30       0.0549      2.00000
     31       0.5749      2.00000
     32       0.6498      2.00000
     33       0.7200      2.00000
     34       0.8794      2.00000
     35       0.9423      2.00000
     36       1.2078      2.00000
     37       1.3994      2.00000
     38       1.9054      2.00000
     39       1.9898      2.00000
     40       2.2130      2.00000
     41       2.4540      2.00000
     42       2.7926      2.00000
     43       2.9258      1.99366
     44       2.9336      1.99118
     45       2.9736      1.95997
     46       2.9972      1.91461
     47       3.1086      1.11430
     48       3.1097      1.10191
     49       3.1516      0.64238
     50       3.1827      0.36598
     51       3.4498      0.00000
     52       3.4845      0.00000
     53       3.6428      0.00000
     54       3.6946      0.00000
     55       3.8386      0.00000
     56       3.8927      0.00000
     57       4.0449      0.00000
     58       4.1138      0.00000
     59       4.4838      0.00000
     60       4.7617      0.00000
     61       5.0152      0.00000
     62       5.6182      0.00000
     63       5.7367      0.00000
     64       6.1415      0.00000

 k-point     4 :       0.3333    0.3333    0.0000
  band No.  band energies     occupation 
      1     -17.5744      2.00000
      2     -16.8393      2.00000
      3     -15.8579      2.00000
      4     -14.8696      2.00000
      5     -13.7334      2.00000
      6     -13.7037      2.00000
      7     -12.8106      2.00000
      8      -7.4304      2.00000
      9      -6.2647      2.00000
     10      -6.1080      2.00000
     11      -5.5536      2.00000
     12      -5.4582      2.00000
     13      -5.1022      2.00000
     14      -4.6084      2.00000
     15      -4.1124      2.00000
     16      -3.7705      2.00000
     17      -3.3608      2.00000
     18      -3.2455      2.00000
     19      -2.9483      2.00000
     20      -2.6090      2.00000
     21      -2.0245      2.00000
     22      -1.7927      2.00000
     23      -1.6043      2.00000
     24      -1.2596      2.00000
     25      -0.8654      2.00000
     26      -0.4877      2.00000
     27      -0.3347      2.00000
     28      -0.2311      2.00000
     29      -0.0891      2.00000
     30       0.2907      2.00000
     31       0.4210      2.00000
     32       0.6278      2.00000
     33       0.7863      2.00000
     34       0.9435      2.00000
     35       1.0327      2.00000
     36       1.3125      2.00000
     37       1.5660      2.00000
     38       1.8820      2.00000
     39       2.2054      2.00000
     40       2.3560      2.00000
     41       2.5613      2.00000
     42       2.7301      2.00000
     43       2.8160      1.99998
     44       2.9018      1.99785
     45       2.9178      1.99551
     46       2.9746      1.95860
     47       2.9963      1.91684
     48       3.1038      1.16814
     49       3.1434      0.72796
     50       3.1534      0.62438
     51       3.2049      0.22324
     52       3.2530      0.05765
     53       3.4153      0.00003
     54       3.4899      0.00000
     55       3.7096      0.00000
     56       3.8034      0.00000
     57       3.8421      0.00000
     58       4.0287      0.00000
     59       4.3610      0.00000
     60       4.7357      0.00000
     61       5.5249      0.00000
     62       5.7722      0.00000
     63       5.8720      0.00000
     64       6.4812      0.00000


--------------------------------------------------------------------------------------------------------


 soft charge-density along one line, spin component           1
         0         1         2         3         4         5         6         7         8         9
 total charge-density along one line
 
 pseudopotential strength for first ion, spin component:           1
  1.444   6.462  -0.003   0.011   0.003
  6.462  28.506  -0.010   0.058   0.010
 -0.003  -0.010   5.428  -0.001  -0.002
  0.011   0.058  -0.001   5.431   0.001
  0.003   0.010  -0.002   0.001   5.428
 total augmentation occupancy for first ion, spin component:           1
  1.593   0.011  -0.079   0.191   0.079
  0.011   0.000  -0.001   0.001   0.001
 -0.079  -0.001   0.026  -0.010  -0.008
  0.191   0.001  -0.010   0.043   0.010
  0.079   0.001  -0.008   0.010   0.026


------------------------ aborting loop EDIFF was not reached (unconverged)  ----------------------------


 -----------------------------------------------------------------------------
|                                                                             |
|           W    W    AA    RRRRR   N    N  II  N    N   GGGG   !!!           |
|           W    W   A  A   R    R  NN   N  II  NN   N  G    G  !!!           |
|           W    W  A    A  R    R  N N  N  II  N N  N  G       !!!           |
|           W WW W  AAAAAA  RRRRR   N  N N  II  N  N N  G  GGG   !            |
|           WW  WW  A    A  R   R   N   NN  II  N   NN  G    G                |
|           W    W  A    A  R    R  N    N  II  N    N   GGGG   !!!           |
|                                                                             |
|     The electronic self-consistency was not achieved in the given           |
|     number of steps (NELM). The forces and other quantities evaluated       |
|     might not be reliable so examine the results carefully. If you find     |
|     spurious results, we suggest increasing NELM, if you were close to      |
|     convergence or switching to a different ALGO or adjusting the           |
|     density mixing parameters otherwise.                                    |
|                                                                             |
 -----------------------------------------------------------------------------

    CHARGE:  cpu time    0.0145: real time    0.0145
    FORLOC:  cpu time    0.0015: real time    0.0018
    FORNL :  cpu time    0.0282: real time    0.0293
    STRESS:  cpu time    0.0902: real time    0.0954
    FORCOR:  cpu time    0.0124: real time    0.0133
    FORHAR:  cpu time    0.0037: real time    0.0041
    MIXING:  cpu time    0.0029: real time    0.0029
    OFIELD:  cpu time    0.0004: real time    0.0004

  FORCE on cell =-STRESS in cart. coord.  units (eV):
  Direction    XX          YY          ZZ          XY          YZ          ZX
  --------------------------------------------------------------------------------------
  Alpha Z    -1.54559    -1.54559    -1.54559
  Ewald   14893.71101 14893.71101-17681.21059  -246.38359  -342.41085   342.41082
  Hartree 16152.92096 16152.92090-14911.21226  -158.19350  -209.86614   209.86614
  E(xc)    -412.06508  -412.06507  -410.26930    -1.59600    -1.90155     1.90155
  Local  -32495.33496-32495.33489 31147.20544   391.72148   535.22546  -535.22545
  n-local    95.00950    87.79132    93.94020     1.25472     6.21866   -10.00412
  augment   223.39577   223.39576   224.38805    -1.16374    -0.15023     0.15131
  Kinetic  1713.06052  1712.14271  1700.84695     4.62278     3.17536    -0.71712
  Fock        0.00000     0.00000     0.00000     0.00000     0.00000     0.00000
  -------------------------------------------------------------------------------------
  Total     165.08414   165.08414   162.14290    -9.73850    -9.04680     9.04682
  in kB     438.73543   438.73543   430.91865   -25.88151   -24.04319    24.04326
  external pressure =      436.13 kB  Pullay stress =        0.00 kB


 VOLUME and BASIS-vectors are now :
 -----------------------------------------------------------------------------
  energy-cutoff  :      400.00
  volume of cell :      602.86
      direct lattice vectors                 reciprocal lattice vectors
    -3.151842525 -3.151842525  0.000000000    -0.158637367 -0.158637367  0.000000000
     4.457378445 -4.457378445  0.000000000     0.112173558 -0.112173558 -0.158637367
    15.171350037-15.171350037 21.455528982     0.000000000  0.000000000  0.046608033

  length of vectors
     4.457378445  6.303685050 30.342700074     0.224347116  0.224347116  0.046608033


 FORCES acting on ions
    electron-ion (+dipol)            ewald-force                    non-local-force                 convergence-correction
 -----------------------------------------------------------------------------------------------
   0.622E+01 -.622E+01 0.147E+03   -.364E+01 0.364E+01 -.145E+03   -.199E+01 0.199E+01 -.479E+01   -.876E+00 0.876E+00 -.669E+00
   -.396E+01 0.396E+01 0.134E+03   0.364E+01 -.364E+01 -.135E+03   0.480E+00 -.480E+00 -.321E+01   0.735E-01 -.735E-01 0.122E+01
   -.606E+01 0.606E+01 0.148E+03   0.364E+01 -.364E+01 -.146E+03   0.168E+01 -.168E+01 -.443E+01   0.874E+00 -.874E+00 -.556E+00
   0.370E+01 -.370E+01 0.132E+03   -.364E+01 0.364E+01 -.132E+03   -.803E-01 0.803E-01 -.188E+01   0.102E+00 -.102E+00 0.123E+01
   -.645E+00 0.645E+00 0.779E+02   -.180E-01 0.180E-01 -.803E+02   0.154E-01 -.154E-01 -.340E+00   0.563E+00 -.563E+00 0.212E+01
   -.355E+01 0.355E+01 0.133E+03   0.364E+01 -.364E+01 -.133E+03   0.106E+01 -.106E+01 -.264E+01   -.105E+00 0.105E+00 0.109E+01
   -.112E+01 0.112E+01 0.759E+02   0.180E-01 -.180E-01 -.786E+02   -.750E-02 0.750E-02 -.111E+01   0.734E+00 -.734E+00 0.237E+01
   -.520E+00 0.520E+00 0.199E+02   -.180E-01 0.180E-01 -.216E+02   0.423E-01 -.423E-01 0.218E+00   0.427E+00 -.427E+00 0.115E+01
   0.158E+01 -.158E+01 0.759E+02   -.180E-01 0.180E-01 -.799E+02   -.198E+00 0.198E+00 -.855E-01   -.727E+00 0.727E+00 0.293E+01
   -.103E+01 0.103E+01 0.197E+02   0.180E-01 -.180E-01 -.216E+02   0.238E+01 -.238E+01 0.264E+01   0.557E+00 -.557E+00 0.132E+01
   0.957E+00 -.957E+00 -.341E+02   0.180E-01 -.180E-01 0.359E+02   -.863E-01 0.863E-01 0.391E+00   -.714E+00 0.714E+00 -.175E+01
   0.108E+01 -.108E+01 0.192E+02   -.180E-01 0.180E-01 -.216E+02   0.174E+00 -.174E+00 0.319E+00   -.553E+00 0.553E+00 0.116E+01
   0.176E+01 -.176E+01 -.335E+02   -.180E-01 0.180E-01 0.362E+02   0.152E+01 -.152E+01 -.388E+01   -.890E+00 0.890E+00 -.202E+01
   -.132E+00 0.132E+00 -.909E+02   0.180E-01 -.180E-01 0.932E+02   0.131E+01 -.131E+01 0.195E+01   -.604E+00 0.604E+00 -.250E+01
   -.178E+01 0.178E+01 -.335E+02   0.180E-01 -.180E-01 0.362E+02   0.757E-01 -.757E-01 0.147E+01   0.891E+00 -.891E+00 -.221E+01
   0.130E+01 -.130E+01 -.916E+02   -.180E-01 0.180E-01 0.936E+02   0.486E+00 -.486E+00 0.286E+01   -.754E+00 0.754E+00 -.269E+01
   0.352E+01 -.352E+01 -.142E+03   -.364E+01 0.364E+01 0.142E+03   -.126E+01 0.126E+01 0.378E+01   0.850E+00 -.850E+00 -.346E+00
   -.237E+01 0.237E+01 -.892E+02   0.180E-01 -.180E-01 0.949E+02   -.979E-01 0.979E-01 0.242E+01   0.757E+00 -.757E+00 -.254E+01
   0.198E+02 -.198E+02 0.785E+03   -.218E+02 0.218E+02 -.793E+03   -.194E+01 0.194E+01 -.342E+01   0.208E+01 -.208E+01 0.868E+01
   -.737E+01 0.738E+01 0.454E+03   0.108E+00 -.108E+00 -.471E+03   -.525E+00 0.525E+00 -.917E+00   0.740E+01 -.740E+01 0.188E+02
   -.615E+01 0.615E+01 0.118E+03   0.108E+00 -.108E+00 -.129E+03   -.172E+01 0.172E+01 -.262E+01   0.572E+01 -.572E+01 0.125E+02
   0.108E+02 -.108E+02 -.200E+03   -.108E+00 0.108E+00 0.217E+03   -.115E+01 0.115E+01 0.561E+01   -.110E+02 0.110E+02 -.185E+02
   0.103E+02 -.103E+02 -.536E+03   -.108E+00 0.108E+00 0.561E+03   0.287E+01 -.287E+01 0.737E+01   -.109E+02 0.109E+02 -.246E+02
   -.316E+02 0.316E+02 -.840E+03   0.218E+02 -.218E+02 0.843E+03   -.480E+01 0.480E+01 -.147E+02   0.130E+02 -.130E+02 0.851E+01
   0.257E+02 -.256E+02 0.929E+03   -.254E+02 0.254E+02 -.937E+03   -.569E+00 0.569E+00 -.461E+01   -.926E+00 0.926E+00 0.728E+01
   0.410E+01 -.410E+01 0.532E+03   0.126E+00 -.126E+00 -.552E+03   0.109E+01 -.109E+01 0.106E+01   -.461E+01 0.461E+01 0.203E+02
   0.352E+01 -.352E+01 0.142E+03   0.126E+00 -.126E+00 -.151E+03   0.633E+00 -.633E+00 0.356E+00   -.361E+01 0.361E+01 0.947E+01
   -.669E+01 0.669E+01 -.235E+03   -.126E+00 0.126E+00 0.251E+03   -.822E-01 0.822E-01 0.476E+00   0.670E+01 -.670E+01 -.167E+02
   -.636E+01 0.636E+01 -.621E+03   -.126E+00 0.126E+00 0.643E+03   -.389E+00 0.389E+00 -.146E+01   0.607E+01 -.607E+01 -.204E+02
   -.166E+02 0.166E+02 -.975E+03   0.254E+02 -.254E+02 0.984E+03   0.126E+01 -.126E+01 0.272E+01   -.829E+01 0.829E+01 -.596E+01
 -----------------------------------------------------------------------------------------------
   -.168E+01 0.169E+01 0.201E+02   -.107E-13 -.711E-14 0.341E-12   0.178E+00 -.178E+00 -.164E+02   0.228E+01 -.228E+01 -.151E+01
 
 
 POSITION                                       TOTAL-FORCE (eV/Angst)
 -----------------------------------------------------------------------------------
      4.89541     -8.04725      6.00000        -0.310904      0.310904     -3.640978
      7.58567     -7.58567      7.57592         0.200687     -0.200687     -3.154275
      7.12410    -10.27594      6.00000         0.105208     -0.105208     -3.372326
      6.00975     -9.16160      7.57592         0.060789     -0.060789     -1.021777
      8.70002     -8.70002      9.15184        -0.110319      0.110319     -0.640443
      8.23844    -11.39029      7.57592         1.010956     -1.010956     -1.962281
      7.12410    -10.27594      9.15184        -0.399357      0.399357     -1.523753
      9.81436     -9.81436     10.72776        -0.093837      0.093837     -0.456744
      9.35279    -12.50463      9.15184         0.607981     -0.607981     -1.265826
      8.23844    -11.39029     10.72776         1.905716     -1.905716      1.978670
     10.92871    -10.92871     12.30369         0.148809     -0.148809      0.364499
     10.46713    -13.61897     10.72776         0.655849     -0.655849     -0.969627
      9.35279    -12.50463     12.30369         2.355801     -2.355801     -3.305963
     12.04305    -12.04305     13.87961         0.563911     -0.563911      1.657927
     11.58148    -14.73332     12.30369        -0.822142      0.822142      1.890296
     10.46713    -13.61897     13.87961         0.990186     -0.990186      2.050947
     13.15740    -13.15740     15.45553        -0.551209      0.551209      3.641284
     12.69582    -15.84766     13.87961        -1.714780      1.714780      5.579592
      6.00975     -9.16160      7.57592        -1.906797      1.906797     -2.733755
      7.12410    -10.27594      9.15184        -0.418675      0.418675     -0.124643
      8.23844    -11.39029     10.72776        -2.074599      2.074599     -2.109834
      9.35279    -12.50463     12.30369        -1.475610      1.475610      4.348634
     10.46713    -13.61897     13.87961         2.113193     -2.113193      7.918189
     11.58148    -14.73332     15.45553        -1.536940      1.536940     -3.163990
      9.81436     -9.81436      7.57592        -1.320232      1.320232     -5.899055
     10.92871    -10.92871      9.15184         0.681210     -0.681210      0.770277
     12.04305    -12.04305     10.72776         0.635651     -0.635651      0.729505
     13.15740    -13.15740     12.30369        -0.222971      0.222971      0.186286
     14.27174    -14.27174     13.87961        -0.829296      0.829296     -0.573911
     15.38609    -15.38609     15.45553         1.751720     -1.751720      4.803073
 -----------------------------------------------------------------------------------
    total drift:                                0.777253     -0.765814      2.204992


--------------------------------------------------------------------------------------------------------



  FREE ENERGIE OF THE ION-ELECTRON SYSTEM (eV)
  ---------------------------------------------------
  free  energy   TOTEN  =      -195.27578815 eV

  energy  without entropy=     -195.05387414  energy(sigma->0) =     -195.16483115
 


--------------------------------------------------------------------------------------------------------


    POTLOK:  cpu time    0.0556: real time    0.0571


--------------------------------------------------------------------------------------------------------


     LOOP+:  cpu time   32.8555: real time   34.3458
    4ORBIT:  cpu time    0.0000: real time    0.0000

 total amount of memory used by VASP MPI-rank0    34196. kBytes
=======================================================================

   base      :      30000. kBytes
   nonlr-proj:       1326. kBytes
   fftplans  :        885. kBytes
   grid      :       1619. kBytes
   one-center:          6. kBytes
   wavefun   :        360. kBytes
 
  
  
 General timing and accounting informations for this job:
 ========================================================
  
                  Total CPU time used (sec):       33.666
                            User time (sec):       32.488
                          System time (sec):        1.177
                         Elapsed time (sec):       35.463
  
                   Maximum memory used (kb):      113776.
                   Average memory used (kb):          N/A
  
                          Minor page faults:       101084
                          Major page faults:            0
                 Voluntary context switches:         2811
