<?xml version="1.0" encoding="ISO-8859-1"?>
<modeling>
 <generator>
  <i name="program" type="string">vasp </i>
  <i name="version" type="string">6.2.1  </i>
  <i name="subversion" type="string">16May21 (build Dec 23 2021 00:35:04) complex                          parallel </i>
  <i name="platform" type="string">LinuxIFC </i>
  <i name="date" type="string">2023 03 08 </i>
  <i name="time" type="string">11:53:58 </i>
 </generator>
 <incar>
  <i type="string" name="PREC">Normal</i>
  <i type="string" name="ALGO">Fast</i>
  <i type="int" name="ISPIN">     0</i>
  <i type="int" name="NELM">   150</i>
  <i type="int" name="IBRION">    -1</i>
  <i name="EDIFF">      0.00000001</i>
  <i name="EDIFFG">     -0.01000000</i>
  <i type="int" name="NSW">     0</i>
  <i type="int" name="ISIF">     3</i>
  <i name="ENCUT">    400.00000000</i>
  <i type="string" name="LREAL">AUTO</i>
  <i type="int" name="ISMEAR">     0</i>
  <i name="SIGMA">      0.10000000</i>
  <i name="KSPACING">      0.50000000</i>
  <i type="logical" name="KGAMMA"> T  </i>
  <i type="int" name="NWRITE">     1</i>
  <i type="int" name="LMAXMIX">     6</i>
  <i type="logical" name="LWAVE"> F  </i>
  <i type="logical" name="LCHARG"> F  </i>
  <i type="logical" name="LASPH"> T  </i>
  <i type="string" name="GGA">PE</i>
  <i type="logical" name="LDIPOL"> T  </i>
  <i type="int" name="IDIPOL">     3</i>
  <v name="DIPOL">      0.25730000      0.74270000      0.50870000</v>
 </incar>
 <primitive_cell>
  <structure name="primitive_cell" >
   <crystal>
    <varray name="basis" >
     <v>      -3.15184252      -3.15184252       0.00000000 </v>
     <v>       4.45737844      -4.45737844       0.00000000 </v>
     <v>      15.17135004     -15.17135004      21.45552898 </v>
    </varray>
    <i name="volume">    602.85551942 </i>
    <varray name="rec_basis" >
     <v>      -0.15863737      -0.15863737       0.00000000 </v>
     <v>       0.11217356      -0.11217356      -0.15863737 </v>
     <v>       0.00000000       0.00000000       0.04660803 </v>
    </varray>
   </crystal>
   <varray name="positions" >
    <v>       0.50000017       0.49999983       0.27964820 </v>
    <v>       0.00000010       0.49999983       0.35309880 </v>
    <v>       0.50000017       0.99999990       0.27964820 </v>
    <v>       0.50000017       0.49999983       0.35309880 </v>
    <v>       0.00000010       0.49999983       0.42654940 </v>
    <v>       0.50000017       0.99999990       0.35309880 </v>
    <v>       0.50000017       0.49999983       0.42654940 </v>
    <v>       0.00000010       0.49999983       0.50000000 </v>
    <v>       0.50000017       0.99999990       0.42654940 </v>
    <v>       0.50000017       0.49999983       0.50000000 </v>
    <v>       0.00000010       0.49999983       0.57345060 </v>
    <v>       0.50000017       0.99999990       0.50000000 </v>
    <v>       0.50000017       0.49999983       0.57345060 </v>
    <v>       0.00000010       0.49999983       0.64690120 </v>
    <v>       0.50000017       0.99999990       0.57345060 </v>
    <v>       0.50000017       0.49999983       0.64690120 </v>
    <v>       0.00000010       0.49999983       0.72035180 </v>
    <v>       0.50000017       0.99999990       0.64690120 </v>
    <v>       0.50000017       0.49999983       0.35309880 </v>
    <v>       0.50000017       0.49999983       0.42654940 </v>
    <v>       0.50000017       0.49999983       0.50000000 </v>
    <v>       0.50000017       0.49999983       0.57345060 </v>
    <v>       0.50000017       0.49999983       0.64690120 </v>
    <v>       0.50000017       0.49999983       0.72035180 </v>
    <v>       0.00000010       0.99999990       0.35309878 </v>
    <v>       0.00000010       0.99999990       0.42654938 </v>
    <v>       0.00000010       0.99999990       0.49999998 </v>
    <v>       0.00000010       0.99999990       0.57345058 </v>
    <v>       0.00000010       0.99999990       0.64690118 </v>
    <v>       0.00000010       0.99999990       0.72035178 </v>
   </varray>
  </structure>
  <varray name="primitive_index" >
   <v type="int" >        1 </v>
   <v type="int" >        2 </v>
   <v type="int" >        3 </v>
   <v type="int" >        4 </v>
   <v type="int" >        5 </v>
   <v type="int" >        6 </v>
   <v type="int" >        7 </v>
   <v type="int" >        8 </v>
   <v type="int" >        9 </v>
   <v type="int" >       10 </v>
   <v type="int" >       11 </v>
   <v type="int" >       12 </v>
   <v type="int" >       13 </v>
   <v type="int" >       14 </v>
   <v type="int" >       15 </v>
   <v type="int" >       16 </v>
   <v type="int" >       17 </v>
   <v type="int" >       18 </v>
   <v type="int" >       19 </v>
   <v type="int" >       20 </v>
   <v type="int" >       21 </v>
   <v type="int" >       22 </v>
   <v type="int" >       23 </v>
   <v type="int" >       24 </v>
   <v type="int" >       25 </v>
   <v type="int" >       26 </v>
   <v type="int" >       27 </v>
   <v type="int" >       28 </v>
   <v type="int" >       29 </v>
   <v type="int" >       30 </v>
  </varray>
 </primitive_cell>
 <kpoints>
  <generation param="Gamma">
   <v type="int" name="divisions">       3        3        1 </v>
   <v name="usershift">      0.00000000       0.00000000       0.00000000 </v>
   <v name="genvec1">      0.33333333       0.00000000       0.00000000 </v>
   <v name="genvec2">      0.00000000       0.33333333      -0.00000000 </v>
   <v name="genvec3">      0.00000000       0.00000000       1.00000000 </v>
   <v name="shift">      0.00000000       0.00000000       0.00000000 </v>
  </generation>
  <varray name="kpointlist" >
   <v>       0.00000000       0.00000000       0.00000000 </v>
   <v>       0.33333333       0.00000000       0.00000000 </v>
   <v>       0.00000000       0.33333333      -0.00000000 </v>
   <v>       0.33333333       0.33333333       0.00000000 </v>
  </varray>
  <varray name="weights" >
   <v>       0.11111111 </v>
   <v>       0.22222222 </v>
   <v>       0.22222222 </v>
   <v>       0.44444444 </v>
  </varray>
 </kpoints>
 <parameters>
  <separator name="general" >
   <i type="string" name="SYSTEM">unknown system</i>
   <i type="logical" name="LCOMPAT"> F  </i>
  </separator>
  <separator name="electronic" >
   <i type="string" name="PREC">normal</i>
   <i name="ENMAX">    400.00000000</i>
   <i name="ENAUG">    605.39200000</i>
   <i name="EDIFF">      0.00000001</i>
   <i type="int" name="IALGO">    68</i>
   <i type="int" name="IWAVPR">    10</i>
   <i type="int" name="NBANDS">    64</i>
   <i type="int" name="NBANDSLOW">    -1</i>
   <i type="int" name="NBANDSHIGH">    -1</i>
   <i name="NELECT">     96.00000000</i>
   <i type="int" name="TURBO">     0</i>
   <i type="int" name="IRESTART">     0</i>
   <i type="int" name="NREBOOT">     0</i>
   <i type="int" name="NMIN">     0</i>
   <i name="EREF">      0.00000000</i>
   <separator name="electronic smearing" >
    <i type="int" name="ISMEAR">     0</i>
    <i name="SIGMA">      0.10000000</i>
    <i name="KSPACING">      0.50000000</i>
    <i type="logical" name="KGAMMA"> T  </i>
    <i type="logical" name="KBLOWUP"> T  </i>
   </separator>
   <separator name="electronic projectors" >
    <i type="logical" name="LREAL"> T  </i>
    <v name="ROPT">     -0.00050000     -0.00050000     -0.00050000</v>
    <i type="int" name="LMAXPAW">  -100</i>
    <i type="int" name="LMAXMIX">     6</i>
    <i type="logical" name="NLSPLINE"> F  </i>
   </separator>
   <separator name="electronic startup" >
    <i type="int" name="ISTART">     0</i>
    <i type="int" name="ICHARG">     2</i>
    <i type="int" name="INIWAV">     1</i>
   </separator>
   <separator name="electronic spin" >
    <i type="int" name="ISPIN">     1</i>
    <i type="logical" name="LNONCOLLINEAR"> F  </i>
    <v name="MAGMOM">      1.00000000      1.00000000      1.00000000      1.00000000      1.00000000      1.00000000      1.00000000      1.00000000      1.00000000      1.00000000      1.00000000      1.00000000      1.00000000      1.00000000      1.00000000      1.00000000      1.00000000      1.00000000      1.00000000      1.00000000
      1.00000000      1.00000000      1.00000000      1.00000000      1.00000000      1.00000000      1.00000000      1.00000000      1.00000000      1.00000000</v>
    <i name="NUPDOWN">     -1.00000000</i>
    <i type="logical" name="LSORBIT"> F  </i>
    <v name="SAXIS">      0.00000000      0.00000000      1.00000000</v>
    <i type="logical" name="LSPIRAL"> F  </i>
    <v name="QSPIRAL">      0.00000000      0.00000000      0.00000000</v>
    <i type="logical" name="LZEROZ"> F  </i>
   </separator>
   <separator name="electronic exchange-correlation" >
    <i type="logical" name="LASPH"> T  </i>
    <i type="logical" name="LMETAGGA"> F  </i>
   </separator>
   <separator name="electronic convergence" >
    <i type="int" name="NELM">   150</i>
    <i type="int" name="NELMDL">    -5</i>
    <i type="int" name="NELMIN">     2</i>
    <i name="ENINI">    400.00000000</i>
    <separator name="electronic convergence detail" >
     <i type="logical" name="LDIAG"> T  </i>
     <i type="logical" name="LSUBROT"> F  </i>
     <i name="WEIMIN">      0.00000000</i>
     <i name="EBREAK">      0.00000000</i>
     <i name="DEPER">      0.30000000</i>
     <i type="int" name="NRMM">     4</i>
     <i name="TIME">      0.40000000</i>
    </separator>
   </separator>
   <separator name="electronic mixer" >
    <i name="AMIX">      0.40000000</i>
    <i name="BMIX">      1.00000000</i>
    <i name="AMIN">      0.10000000</i>
    <i name="AMIX_MAG">      1.60000000</i>
    <i name="BMIX_MAG">      1.00000000</i>
    <separator name="electronic mixer details" >
     <i type="int" name="IMIX">     4</i>
     <i type="logical" name="MIXFIRST"> F  </i>
     <i type="int" name="MAXMIX">   -45</i>
     <i name="WC">    100.00000000</i>
     <i type="int" name="INIMIX">     1</i>
     <i type="int" name="MIXPRE">     1</i>
     <i type="int" name="MREMOVE">     5</i>
    </separator>
   </separator>
   <separator name="electronic dipolcorrection" >
    <i type="logical" name="LDIPOL"> T  </i>
    <i type="logical" name="LMONO"> F  </i>
    <i type="int" name="IDIPOL">     3</i>
    <i name="EPSILON">      1.00000000</i>
    <v name="DIPOL">      0.25730000      0.74270000      0.50870000</v>
    <i name="EFIELD">      0.00000000</i>
   </separator>
  </separator>
  <separator name="grids" >
   <i type="int" name="NGX">    24</i>
   <i type="int" name="NGY">    32</i>
   <i type="int" name="NGZ">   150</i>
   <i type="int" name="NGXF">    48</i>
   <i type="int" name="NGYF">    64</i>
   <i type="int" name="NGZF">   300</i>
   <i type="logical" name="ADDGRID"> F  </i>
  </separator>
  <separator name="ionic" >
   <i type="int" name="NSW">     0</i>
   <i type="int" name="IBRION">    -1</i>
   <i type="int" name="MDALGO">     0</i>
   <i type="int" name="ISIF">     3</i>
   <i name="PSTRESS">      0.00000000</i>
   <i name="EDIFFG">     -0.01000000</i>
   <i type="int" name="NFREE">     0</i>
   <i name="POTIM">      0.50000000</i>
   <i name="SMASS">     -3.00000000</i>
   <i name="SCALEE">      1.00000000</i>
  </separator>
  <separator name="ionic md" >
   <i name="TEBEG">      0.00010000</i>
   <i name="TEEND">      0.00010000</i>
   <i type="int" name="NBLOCK">     1</i>
   <i type="int" name="KBLOCK">     1</i>
   <i type="int" name="NPACO">   256</i>
   <i name="APACO">     16.00000000</i>
  </separator>
  <separator name="symmetry" >
   <i type="int" name="ISYM">     2</i>
   <i name="SYMPREC">      0.00001000</i>
  </separator>
  <separator name="dos" >
   <i type="int" name="LORBIT">     0</i>
   <v name="RWIGS">     -1.00000000     -1.00000000     -1.00000000</v>
   <i type="int" name="NEDOS">   301</i>
   <i name="EMIN">     10.00000000</i>
   <i name="EMAX">    -10.00000000</i>
   <i name="EFERMI">      0.00000000</i>
  </separator>
  <separator name="writing" >
   <i type="int" name="NWRITE">     1</i>
   <i type="logical" name="LWAVE"> F  </i>
   <i type="logical" name="LDOWNSAMPLE"> F  </i>
   <i type="logical" name="LCHARG"> F  </i>
   <i type="logical" name="LPARD"> F  </i>
   <i type="logical" name="LVTOT"> F  </i>
   <i type="logical" name="LVHAR"> F  </i>
   <i type="logical" name="LELF"> F  </i>
   <i type="logical" name="LOPTICS"> F  </i>
   <v name="STM">      0.00000000      0.00000000      0.00000000      0.00000000      0.00000000      0.00000000      0.00000000</v>
  </separator>
  <separator name="performance" >
   <i type="int" name="NPAR">     8</i>
   <i type="int" name="NSIM">     4</i>
   <i type="int" name="NBLK">    -1</i>
   <i type="logical" name="LPLANE"> T  </i>
   <i type="logical" name="LSCALAPACK"> T  </i>
   <i type="logical" name="LSCAAWARE"> F  </i>
   <i type="logical" name="LSCALU"> F  </i>
   <i type="logical" name="LASYNC"> F  </i>
   <i type="logical" name="LORBITALREAL"> F  </i>
  </separator>
  <separator name="miscellaneous" >
   <i type="int" name="IDIOT">     3</i>
   <i type="int" name="PHON_NSTRUCT">    -1</i>
   <i type="logical" name="LMUSIC"> F  </i>
   <v name="POMASS">     22.99000000     16.00000000     35.45300000</v>
   <v name="DARWINR">      0.00000000      0.00000000      0.00000000</v>
   <v name="DARWINV">      1.00000000      1.00000000      1.00000000</v>
   <i type="logical" name="LCORR"> T  </i>
  </separator>
  <i type="logical" name="GGA_COMPAT"> T  </i>
  <i type="logical" name="LBERRY"> F  </i>
  <i type="int" name="ICORELEVEL">     0</i>
  <i type="logical" name="LDAU"> F  </i>
  <i type="int" name="I_CONSTRAINED_M">     0</i>
  <separator name="electronic exchange-correlation" >
   <i type="string" name="GGA">PE</i>
   <i type="int" name="VOSKOWN">     0</i>
   <i type="logical" name="LHFCALC"> F  </i>
   <i type="string" name="PRECFOCK"></i>
   <i type="logical" name="LSYMGRAD"> F  </i>
   <i type="logical" name="LHFONE"> F  </i>
   <i type="logical" name="LRHFCALC"> F  </i>
   <i type="logical" name="LTHOMAS"> F  </i>
   <i type="logical" name="LMODELHF"> F  </i>
   <i type="logical" name="LFOCKACE"> F  </i>
   <i name="ENCUT4O">     -1.00000000</i>
   <i type="int" name="EXXOEP">     0</i>
   <i type="int" name="FOURORBIT">     0</i>
   <i name="AEXX">      0.00000000</i>
   <i name="HFALPHA">      0.00000000</i>
   <i name="MCALPHA">      0.00000000</i>
   <i name="ALDAX">      1.00000000</i>
   <i name="AGGAX">      1.00000000</i>
   <i name="ALDAC">      1.00000000</i>
   <i name="AGGAC">      1.00000000</i>
   <i type="int" name="NKREDX">     1</i>
   <i type="int" name="NKREDY">     1</i>
   <i type="int" name="NKREDZ">     1</i>
   <i type="logical" name="SHIFTRED"> F  </i>
   <i type="logical" name="ODDONLY"> F  </i>
   <i type="logical" name="EVENONLY"> F  </i>
   <i type="int" name="LMAXFOCK">     0</i>
   <i type="int" name="NMAXFOCKAE">     0</i>
   <i type="logical" name="LFOCKAEDFT"> F  </i>
   <i name="HFSCREEN">      0.00000000</i>
   <i name="HFSCREENC">      0.00000000</i>
   <i type="int" name="NBANDSGWLOW">     0</i>
  </separator>
  <separator name="vdW DFT" >
   <i type="logical" name="LUSE_VDW"> F  </i>
   <i name="Zab_VDW">     -0.84910000</i>
   <i name="PARAM1">      0.12340000</i>
   <i name="PARAM2">      1.00000000</i>
   <i name="PARAM3">      0.00000000</i>
  </separator>
  <separator name="model GW" >
   <i type="int" name="MODEL_GW">     0</i>
   <i name="MODEL_EPS0">     12.05711039</i>
   <i name="MODEL_ALPHA">      1.00000000</i>
  </separator>
  <separator name="linear response parameters" >
   <i type="logical" name="LEPSILON"> F  </i>
   <i type="logical" name="LRPA"> F  </i>
   <i type="logical" name="LNABLA"> F  </i>
   <i type="logical" name="LVEL"> F  </i>
   <i type="int" name="KINTER">     0</i>
   <i name="CSHIFT">      0.10000000</i>
   <i name="OMEGAMAX">     -1.00000000</i>
   <i name="DEG_THRESHOLD">      0.00200000</i>
   <i name="RTIME">     -0.10000000</i>
   <i name="WPLASMAI">      0.00000000</i>
   <v name="DFIELD">      0.00000000      0.00000000      0.00000000</v>
   <v name="WPLASMA">      0.00000000      0.00000000      0.00000000      0.00000000      0.00000000      0.00000000      0.00000000      0.00000000      0.00000000</v>
  </separator>
  <separator name="orbital magnetization" >
   <i type="logical" name="NUCIND"> F  </i>
   <v name="MAGPOS">      0.00000000      0.00000000      0.00000000</v>
   <i type="logical" name="LNICSALL"> T  </i>
   <i type="logical" name="ORBITALMAG"> F  </i>
   <i type="logical" name="LMAGBLOCH"> F  </i>
   <i type="logical" name="LCHIMAG"> F  </i>
   <i type="logical" name="LGAUGE"> T  </i>
   <i type="int" name="MAGATOM">     0</i>
   <v name="MAGDIPOL">      0.00000000      0.00000000      0.00000000</v>
   <v name="AVECCONST">      0.00000000      0.00000000      0.00000000</v>
  </separator>
  <separator name="response functions" >
   <i type="logical" name="LFINITE_TEMPERATURE"> F  </i>
   <i type="logical" name="LADDER"> F  </i>
   <i type="logical" name="LRPAFORCE"> F  </i>
   <i type="logical" name="LFXC"> F  </i>
   <i type="logical" name="LHARTREE"> T  </i>
   <i type="int" name="IBSE">     0</i>
   <v type="int" name="KPOINT">    -1     0     0     0</v>
   <i type="logical" name="LTCTC"> F  </i>
   <i type="logical" name="LTCTE"> F  </i>
   <i type="logical" name="LTETE"> F  </i>
   <i type="logical" name="LTRIPLET"> F  </i>
   <i type="logical" name="LFXCEPS"> F  </i>
   <i type="logical" name="LFXHEG"> F  </i>
   <i type="int" name="NATURALO">     2</i>
   <i type="logical" name="LHOLEGF"> F  </i>
   <i type="logical" name="L2ORDER"> F  </i>
   <i type="logical" name="LDMP1"> F  </i>
   <i type="logical" name="LMP2LT"> F  </i>
   <i type="logical" name="LSMP2LT"> F  </i>
   <i type="logical" name="LGWLF"> F  </i>
   <i name="ENCUTGW">     -2.00000000</i>
   <i name="ENCUTGWSOFT">     -2.00000000</i>
   <i name="ENCUTLF">     -1.00000000</i>
   <i type="logical" name="LESF_SPLINES"> F  </i>
   <i type="int" name="LMAXMP2">    -1</i>
   <i name="SCISSOR">      0.00000000</i>
   <i type="int" name="NOMEGA">     0</i>
   <i type="int" name="NOMEGAR">     0</i>
   <i type="int" name="NBANDSGW">    -1</i>
   <i type="int" name="NBANDSO">    -1</i>
   <i type="int" name="NBANDSV">    -1</i>
   <i type="int" name="NELM">   150</i>
   <i type="int" name="NELMHF">     1</i>
   <i type="int" name="DIM">     3</i>
   <i type="int" name="IESPILON">     4</i>
   <i type="int" name="ANTIRES">     0</i>
   <i name="OMEGAMAX">    -30.00000000</i>
   <i name="OMEGAMIN">    -30.00000000</i>
   <i name="OMEGATL">   -200.00000000</i>
   <i type="int" name="OMEGAGRID">     0</i>
   <i name="CSHIFT">     -0.10000000</i>
   <i type="logical" name="LSELFENERGY"> F  </i>
   <i type="logical" name="LSPECTRAL"> F  </i>
   <i type="logical" name="LSPECTRALGW"> F  </i>
   <i type="logical" name="LSINGLES"> F  </i>
   <i type="logical" name="LFERMIGW"> F  </i>
   <i type="logical" name="ODDONLYGW"> F  </i>
   <i type="logical" name="EVENONLYGW"> F  </i>
   <i type="int" name="NKREDLFX">     1</i>
   <i type="int" name="NKREDLFY">     1</i>
   <i type="int" name="NKREDLFZ">     1</i>
   <i type="int" name="MAXMEM">  2800</i>
   <i type="int" name="TELESCOPE">     0</i>
   <i type="int" name="NTAUPAR">    -1</i>
   <i type="int" name="NOMEGAPAR">    -1</i>
   <i name="DAMP_NEWTON">      0.80000001</i>
   <i name="LAMBDA">      1.00000000</i>
  </separator>
  <separator name="External order field" >
   <i name="OFIELD_KAPPA">      0.00000000</i>
   <v name="OFIELD_K">      0.00000000      0.00000000      0.00000000</v>
   <i name="OFIELD_Q6_NEAR">      0.00000000</i>
   <i name="OFIELD_Q6_FAR">      0.00000000</i>
   <i name="OFIELD_A">      0.00000000</i>
  </separator>
 </parameters>
 <atominfo>
  <atoms>      30 </atoms>
  <types>       3 </types>
  <array name="atoms" >
   <dimension dim="1">ion</dimension>
   <field type="string">element</field>
   <field type="int">atomtype</field>
   <set>
    <rc><c>Na</c><c>   1</c></rc>
    <rc><c>Na</c><c>   1</c></rc>
    <rc><c>Na</c><c>   1</c></rc>
    <rc><c>Na</c><c>   1</c></rc>
    <rc><c>Na</c><c>   1</c></rc>
    <rc><c>Na</c><c>   1</c></rc>
    <rc><c>Na</c><c>   1</c></rc>
    <rc><c>Na</c><c>   1</c></rc>
    <rc><c>Na</c><c>   1</c></rc>
    <rc><c>Na</c><c>   1</c></rc>
    <rc><c>Na</c><c>   1</c></rc>
    <rc><c>Na</c><c>   1</c></rc>
    <rc><c>Na</c><c>   1</c></rc>
    <rc><c>Na</c><c>   1</c></rc>
    <rc><c>Na</c><c>   1</c></rc>
    <rc><c>Na</c><c>   1</c></rc>
    <rc><c>Na</c><c>   1</c></rc>
    <rc><c>Na</c><c>   1</c></rc>
    <rc><c>O </c><c>   2</c></rc>
    <rc><c>O </c><c>   2</c></rc>
    <rc><c>O </c><c>   2</c></rc>
    <rc><c>O </c><c>   2</c></rc>
    <rc><c>O </c><c>   2</c></rc>
    <rc><c>O </c><c>   2</c></rc>
    <rc><c>Cl</c><c>   3</c></rc>
    <rc><c>Cl</c><c>   3</c></rc>
    <rc><c>Cl</c><c>   3</c></rc>
    <rc><c>Cl</c><c>   3</c></rc>
    <rc><c>Cl</c><c>   3</c></rc>
    <rc><c>Cl</c><c>   3</c></rc>
   </set>
  </array>
  <array name="atomtypes" >
   <dimension dim="1">type</dimension>
   <field type="int">atomspertype</field>
   <field type="string">element</field>
   <field>mass</field>
   <field>valence</field>
   <field type="string">pseudopotential</field>
   <set>
    <rc><c>  18</c><c>Na</c><c>     22.99000000</c><c>      1.00000000</c><c>  PAW_PBE Na 08Apr2002                  </c></rc>
    <rc><c>   6</c><c>O </c><c>     16.00000000</c><c>      6.00000000</c><c>  PAW_PBE O 08Apr2002                   </c></rc>
    <rc><c>   6</c><c>Cl</c><c>     35.45300000</c><c>      7.00000000</c><c>  PAW_PBE Cl 06Sep2000                  </c></rc>
   </set>
  </array>
 </atominfo>
 <structure name="initialpos" >
  <crystal>
   <varray name="basis" >
    <v>      -3.15184252      -3.15184252       0.00000000 </v>
    <v>       4.45737844      -4.45737844       0.00000000 </v>
    <v>      15.17135004     -15.17135004      21.45552898 </v>
   </varray>
   <i name="volume">    602.85551942 </i>
   <varray name="rec_basis" >
    <v>      -0.15863737      -0.15863737       0.00000000 </v>
    <v>       0.11217356      -0.11217356      -0.15863737 </v>
    <v>       0.00000000       0.00000000       0.04660803 </v>
   </varray>
  </crystal>
  <varray name="positions" >
   <v>       0.50000017       0.49999983       0.27964820 </v>
   <v>       0.00000010       0.49999983       0.35309880 </v>
   <v>       0.50000017       0.99999990       0.27964820 </v>
   <v>       0.50000017       0.49999983       0.35309880 </v>
   <v>       0.00000010       0.49999983       0.42654940 </v>
   <v>       0.50000017       0.99999990       0.35309880 </v>
   <v>       0.50000017       0.49999983       0.42654940 </v>
   <v>       0.00000010       0.49999983       0.50000000 </v>
   <v>       0.50000017       0.99999990       0.42654940 </v>
   <v>       0.50000017       0.49999983       0.50000000 </v>
   <v>       0.00000010       0.49999983       0.57345060 </v>
   <v>       0.50000017       0.99999990       0.50000000 </v>
   <v>       0.50000017       0.49999983       0.57345060 </v>
   <v>       0.00000010       0.49999983       0.64690120 </v>
   <v>       0.50000017       0.99999990       0.57345060 </v>
   <v>       0.50000017       0.49999983       0.64690120 </v>
   <v>       0.00000010       0.49999983       0.72035180 </v>
   <v>       0.50000017       0.99999990       0.64690120 </v>
   <v>       0.50000017       0.49999983       0.35309880 </v>
   <v>       0.50000017       0.49999983       0.42654940 </v>
   <v>       0.50000017       0.49999983       0.50000000 </v>
   <v>       0.50000017       0.49999983       0.57345060 </v>
   <v>       0.50000017       0.49999983       0.64690120 </v>
   <v>       0.50000017       0.49999983       0.72035180 </v>
   <v>       0.00000010       0.99999990       0.35309878 </v>
   <v>       0.00000010       0.99999990       0.42654938 </v>
   <v>       0.00000010       0.99999990       0.49999998 </v>
   <v>       0.00000010       0.99999990       0.57345058 </v>
   <v>       0.00000010       0.99999990       0.64690118 </v>
   <v>       0.00000010       0.99999990       0.72035178 </v>
  </varray>
 </structure>
 <calculation>
  <scstep>
   <time name="dav">    0.23    0.24</time>
   <time name="total">    0.29    0.30</time>
   <dipole>
    <v name="dipole">      0.00260940      -0.00260940       0.00369025 </v>
    <i name="Tr[quadrupol]">   -605.05957970 </i>
    <i name="Echarged">      0.00000000 </i>
    <i name="Edipol_quadrupol">      0.00000000 </i>
    <i name="Eion">      0.00000000 </i>
   </dipole>
   <energy>
    <i name="alphaZ">     -1.54559097 </i>
    <i name="ewald">  12208.49381449 </i>
    <i name="hartreedc"> -16992.56491503 </i>
    <i name="XCdc">   -412.16464022 </i>
    <i name="pawpsdc">   4748.72083474 </i>
    <i name="pawaedc">  -4085.04238193 </i>
    <i name="eentropy">     -0.02094060 </i>
    <i name="bandstr">   -342.74731595 </i>
    <i name="atom">   5144.72585983 </i>
    <i name="e_fr_energy">    267.85472435 </i>
    <i name="e_wo_entrp">    267.87566495 </i>
    <i name="e_0_energy">    267.86519465 </i>
   </energy>
  </scstep>
  <scstep>
   <time name="dav">    0.20    0.20</time>
   <time name="total">    0.20    0.20</time>
   <dipole>
    <v name="dipole">      0.00260940      -0.00260940       0.00369025 </v>
    <i name="Tr[quadrupol]">   -605.05957970 </i>
    <i name="Echarged">      0.00000000 </i>
    <i name="Edipol_quadrupol">      0.00000000 </i>
    <i name="Eion">      0.00000000 </i>
   </dipole>
   <energy>
    <i name="e_fr_energy">   -550.04813233 </i>
    <i name="e_wo_entrp">   -550.01762604 </i>
    <i name="e_0_energy">   -550.03287918 </i>
   </energy>
  </scstep>
  <scstep>
   <time name="dav">    0.26    0.26</time>
   <time name="total">    0.26    0.26</time>
   <dipole>
    <v name="dipole">      0.00260940      -0.00260940       0.00369025 </v>
    <i name="Tr[quadrupol]">   -605.05957970 </i>
    <i name="Echarged">      0.00000000 </i>
    <i name="Edipol_quadrupol">      0.00000000 </i>
    <i name="Eion">      0.00000000 </i>
   </dipole>
   <energy>
    <i name="e_fr_energy">   -782.38804077 </i>
    <i name="e_wo_entrp">   -782.36095318 </i>
    <i name="e_0_energy">   -782.37449698 </i>
   </energy>
  </scstep>
  <scstep>
   <time name="dav">    0.21    0.21</time>
   <time name="total">    0.21    0.21</time>
   <dipole>
    <v name="dipole">      0.00260940      -0.00260940       0.00369025 </v>
    <i name="Tr[quadrupol]">   -605.05957970 </i>
    <i name="Echarged">      0.00000000 </i>
    <i name="Edipol_quadrupol">      0.00000000 </i>
    <i name="Eion">      0.00000000 </i>
   </dipole>
   <energy>
    <i name="e_fr_energy">   -799.82922434 </i>
    <i name="e_wo_entrp">   -799.81865313 </i>
    <i name="e_0_energy">   -799.82393873 </i>
   </energy>
  </scstep>
  <scstep>
   <time name="dav">    0.24    0.24</time>
   <time name="total">    0.26    0.27</time>
   <dipole>
    <v name="dipole">      0.00260940      -0.00260940       0.00369025 </v>
    <i name="Tr[quadrupol]">   -605.05957970 </i>
    <i name="Echarged">      0.00000000 </i>
    <i name="Edipol_quadrupol">      0.00000000 </i>
    <i name="Eion">      0.00000000 </i>
   </dipole>
   <energy>
    <i name="e_fr_energy">   -800.15046759 </i>
    <i name="e_wo_entrp">   -800.14091423 </i>
    <i name="e_0_energy">   -800.14569091 </i>
   </energy>
  </scstep>
  <scstep>
   <time name="diag">    0.05    0.05</time>
   <time name="diis">    0.05    0.05</time>
   <time name="orth">    0.01    0.01</time>
   <time name="total">    0.18    0.19</time>
   <dipole>
    <v name="dipole">      0.66932433      -0.66932433       0.94656755 </v>
    <i name="Tr[quadrupol]">   -619.12227047 </i>
    <i name="Echarged">      0.00000000 </i>
    <i name="Edipol_quadrupol">      0.00000000 </i>
    <i name="Eion">      0.00000000 </i>
   </dipole>
   <energy>
    <i name="e_fr_energy">   -366.78422179 </i>
    <i name="e_wo_entrp">   -366.65056480 </i>
    <i name="e_0_energy">   -366.71739329 </i>
   </energy>
  </scstep>
  <scstep>
   <time name="diag">    0.04    0.04</time>
   <time name="diis">    0.06    0.06</time>
   <time name="orth">    0.01    0.01</time>
   <time name="total">    0.18    0.18</time>
   <dipole>
    <v name="dipole">     -0.72967969       0.72967969      -1.03192292 </v>
    <i name="Tr[quadrupol]">   -610.68504123 </i>
    <i name="Echarged">      0.00000000 </i>
    <i name="Edipol_quadrupol">      0.00000000 </i>
    <i name="Eion">      0.00000000 </i>
   </dipole>
   <energy>
    <i name="e_fr_energy">   -514.31892491 </i>
    <i name="e_wo_entrp">   -514.25807993 </i>
    <i name="e_0_energy">   -514.28850242 </i>
   </energy>
  </scstep>
  <scstep>
   <time name="diag">    0.05    0.05</time>
   <time name="diis">    0.06    0.06</time>
   <time name="orth">    0.01    0.01</time>
   <time name="total">    0.18    0.18</time>
   <dipole>
    <v name="dipole">     -0.41963337       0.41963337      -0.59345120 </v>
    <i name="Tr[quadrupol]">   -612.29115588 </i>
    <i name="Echarged">      0.00000000 </i>
    <i name="Edipol_quadrupol">      0.00000000 </i>
    <i name="Eion">      0.00000000 </i>
   </dipole>
   <energy>
    <i name="e_fr_energy">   -461.43773964 </i>
    <i name="e_wo_entrp">   -461.38891779 </i>
    <i name="e_0_energy">   -461.41332871 </i>
   </energy>
  </scstep>
  <scstep>
   <time name="diag">    0.04    0.04</time>
   <time name="diis">    0.10    0.15</time>
   <time name="orth">    0.02    0.02</time>
   <time name="total">    0.23    0.28</time>
   <dipole>
    <v name="dipole">      0.14009008      -0.14009008       0.19811730 </v>
    <i name="Tr[quadrupol]">   -618.78896833 </i>
    <i name="Echarged">      0.00000000 </i>
    <i name="Edipol_quadrupol">      0.00000000 </i>
    <i name="Eion">      0.00000000 </i>
   </dipole>
   <energy>
    <i name="e_fr_energy">   -272.07611143 </i>
    <i name="e_wo_entrp">   -272.01467229 </i>
    <i name="e_0_energy">   -272.04539186 </i>
   </energy>
  </scstep>
  <scstep>
   <time name="diag">    0.04    0.04</time>
   <time name="diis">    0.07    0.07</time>
   <time name="orth">    0.01    0.01</time>
   <time name="total">    0.19    0.19</time>
   <dipole>
    <v name="dipole">      0.07692837      -0.07692837       0.10879315 </v>
    <i name="Tr[quadrupol]">   -619.83693813 </i>
    <i name="Echarged">      0.00000000 </i>
    <i name="Edipol_quadrupol">      0.00000000 </i>
    <i name="Eion">      0.00000000 </i>
   </dipole>
   <energy>
    <i name="e_fr_energy">   -215.13774521 </i>
    <i name="e_wo_entrp">   -215.05894451 </i>
    <i name="e_0_energy">   -215.09834486 </i>
   </energy>
  </scstep>
  <scstep>
   <time name="diag">    0.04    0.04</time>
   <time name="diis">    0.06    0.06</time>
   <time name="orth">    0.01    0.01</time>
   <time name="total">    0.18    0.18</time>
   <dipole>
    <v name="dipole">      0.65369428      -0.65369428       0.92446332 </v>
    <i name="Tr[quadrupol]">   -621.08484101 </i>
    <i name="Echarged">      0.00000000 </i>
    <i name="Edipol_quadrupol">      0.00000000 </i>
    <i name="Eion">      0.00000000 </i>
   </dipole>
   <energy>
    <i name="e_fr_energy">   -284.04032223 </i>
    <i name="e_wo_entrp">   -283.93032788 </i>
    <i name="e_0_energy">   -283.98532506 </i>
   </energy>
  </scstep>
  <scstep>
   <time name="diag">    0.04    0.05</time>
   <time name="diis">    0.06    0.06</time>
   <time name="orth">    0.01    0.01</time>
   <time name="total">    0.18    0.18</time>
   <dipole>
    <v name="dipole">      0.77608825      -0.77608825       1.09755453 </v>
    <i name="Tr[quadrupol]">   -622.21700739 </i>
    <i name="Echarged">      0.00000000 </i>
    <i name="Edipol_quadrupol">      0.00000000 </i>
    <i name="Eion">      0.00000000 </i>
   </dipole>
   <energy>
    <i name="e_fr_energy">   -284.81207330 </i>
    <i name="e_wo_entrp">   -284.69235277 </i>
    <i name="e_0_energy">   -284.75221303 </i>
   </energy>
  </scstep>
  <scstep>
   <time name="diag">    0.04    0.04</time>
   <time name="diis">    0.06    0.06</time>
   <time name="orth">    0.01    0.01</time>
   <time name="total">    0.18    0.18</time>
   <dipole>
    <v name="dipole">      0.70451850      -0.70451850       0.99633961 </v>
    <i name="Tr[quadrupol]">   -622.20733233 </i>
    <i name="Echarged">      0.00000000 </i>
    <i name="Edipol_quadrupol">      0.00000000 </i>
    <i name="Eion">      0.00000000 </i>
   </dipole>
   <energy>
    <i name="e_fr_energy">   -280.13519072 </i>
    <i name="e_wo_entrp">   -280.13519072 </i>
    <i name="e_0_energy">   -280.13519072 </i>
   </energy>
  </scstep>
  <scstep>
   <time name="diag">    0.05    0.05</time>
   <time name="diis">    0.06    0.06</time>
   <time name="orth">    0.01    0.01</time>
   <time name="total">    0.19    0.19</time>
   <dipole>
    <v name="dipole">      0.69023126      -0.69023126       0.97613441 </v>
    <i name="Tr[quadrupol]">   -621.46515178 </i>
    <i name="Echarged">      0.00000000 </i>
    <i name="Edipol_quadrupol">      0.00000000 </i>
    <i name="Eion">      0.00000000 </i>
   </dipole>
   <energy>
    <i name="e_fr_energy">   -259.43423758 </i>
    <i name="e_wo_entrp">   -259.30562673 </i>
    <i name="e_0_energy">   -259.36993216 </i>
   </energy>
  </scstep>
  <scstep>
   <time name="diag">    0.06    0.08</time>
   <time name="diis">    0.07    0.07</time>
   <time name="orth">    0.01    0.01</time>
   <time name="total">    0.23    0.25</time>
   <dipole>
    <v name="dipole">      0.79534509      -0.79534509       1.12478781 </v>
    <i name="Tr[quadrupol]">   -621.90169494 </i>
    <i name="Echarged">      0.00000000 </i>
    <i name="Edipol_quadrupol">      0.00000000 </i>
    <i name="Eion">      0.00000000 </i>
   </dipole>
   <energy>
    <i name="e_fr_energy">   -273.57272767 </i>
    <i name="e_wo_entrp">   -273.50147749 </i>
    <i name="e_0_energy">   -273.53710258 </i>
   </energy>
  </scstep>
  <scstep>
   <time name="diag">    0.05    0.05</time>
   <time name="diis">    0.06    0.06</time>
   <time name="orth">    0.01    0.01</time>
   <time name="total">    0.20    0.22</time>
   <dipole>
    <v name="dipole">      0.90680642      -0.90680642       1.28241794 </v>
    <i name="Tr[quadrupol]">   -621.98833426 </i>
    <i name="Echarged">      0.00000000 </i>
    <i name="Edipol_quadrupol">      0.00000000 </i>
    <i name="Eion">      0.00000000 </i>
   </dipole>
   <energy>
    <i name="e_fr_energy">   -287.37660648 </i>
    <i name="e_wo_entrp">   -287.27210690 </i>
    <i name="e_0_energy">   -287.32435669 </i>
   </energy>
  </scstep>
  <scstep>
   <time name="diag">    0.05    0.05</time>
   <time name="diis">    0.07    0.07</time>
   <time name="orth">    0.01    0.01</time>
   <time name="total">    0.19    0.19</time>
   <dipole>
    <v name="dipole">      0.92364888      -0.92364888       1.30623678 </v>
    <i name="Tr[quadrupol]">   -622.18523001 </i>
    <i name="Echarged">      0.00000000 </i>
    <i name="Edipol_quadrupol">      0.00000000 </i>
    <i name="Eion">      0.00000000 </i>
   </dipole>
   <energy>
    <i name="e_fr_energy">   -293.37333884 </i>
    <i name="e_wo_entrp">   -293.25894698 </i>
    <i name="e_0_energy">   -293.31614291 </i>
   </energy>
  </scstep>
  <scstep>
   <time name="diag">    0.04    0.04</time>
   <time name="diis">    0.06    0.06</time>
   <time name="orth">    0.01    0.01</time>
   <time name="total">    0.18    0.18</time>
   <dipole>
    <v name="dipole">      0.97388016      -0.97388016       1.37727453 </v>
    <i name="Tr[quadrupol]">   -622.15327107 </i>
    <i name="Echarged">      0.00000000 </i>
    <i name="Edipol_quadrupol">      0.00000000 </i>
    <i name="Eion">      0.00000000 </i>
   </dipole>
   <energy>
    <i name="e_fr_energy">   -305.58388937 </i>
    <i name="e_wo_entrp">   -305.47801472 </i>
    <i name="e_0_energy">   -305.53095204 </i>
   </energy>
  </scstep>
  <scstep>
   <time name="diag">    0.05    0.05</time>
   <time name="diis">    0.07    0.07</time>
   <time name="orth">    0.01    0.01</time>
   <time name="total">    0.19    0.19</time>
   <dipole>
    <v name="dipole">      0.97683175      -0.97683175       1.38144871 </v>
    <i name="Tr[quadrupol]">   -622.18271424 </i>
    <i name="Echarged">      0.00000000 </i>
    <i name="Edipol_quadrupol">      0.00000000 </i>
    <i name="Eion">      0.00000000 </i>
   </dipole>
   <energy>
    <i name="e_fr_energy">   -306.34243515 </i>
    <i name="e_wo_entrp">   -306.24509317 </i>
    <i name="e_0_energy">   -306.29376416 </i>
   </energy>
  </scstep>
  <scstep>
   <time name="diag">    0.16    0.27</time>
   <time name="diis">    0.06    0.06</time>
   <time name="orth">    0.01    0.01</time>
   <time name="total">    0.32    0.43</time>
   <dipole>
    <v name="dipole">      1.06385492      -1.06385492       1.50451806 </v>
    <i name="Tr[quadrupol]">   -622.60123088 </i>
    <i name="Echarged">      0.00000000 </i>
    <i name="Edipol_quadrupol">      0.00000000 </i>
    <i name="Eion">      0.00000000 </i>
   </dipole>
   <energy>
    <i name="e_fr_energy">   -311.39493759 </i>
    <i name="e_wo_entrp">   -311.33726568 </i>
    <i name="e_0_energy">   -311.36610164 </i>
   </energy>
  </scstep>
  <scstep>
   <time name="diag">    0.04    0.04</time>
   <time name="diis">    0.07    0.08</time>
   <time name="orth">    0.01    0.01</time>
   <time name="total">    0.19    0.19</time>
   <dipole>
    <v name="dipole">      1.36027161      -1.36027161       1.92371457 </v>
    <i name="Tr[quadrupol]">   -624.02559844 </i>
    <i name="Echarged">      0.00000000 </i>
    <i name="Edipol_quadrupol">      0.00000000 </i>
    <i name="Eion">      0.00000000 </i>
   </dipole>
   <energy>
    <i name="e_fr_energy">   -342.90451037 </i>
    <i name="e_wo_entrp">   -342.82394977 </i>
    <i name="e_0_energy">   -342.86423007 </i>
   </energy>
  </scstep>
  <scstep>
   <time name="diag">    0.05    0.05</time>
   <time name="diis">    0.08    0.08</time>
   <time name="orth">    0.01    0.01</time>
   <time name="total">    0.20    0.20</time>
   <dipole>
    <v name="dipole">      3.05939700      -3.05939700       4.32664073 </v>
    <i name="Tr[quadrupol]">   -631.96424161 </i>
    <i name="Echarged">      0.00000000 </i>
    <i name="Edipol_quadrupol">      0.00000000 </i>
    <i name="Eion">      0.00000000 </i>
   </dipole>
   <energy>
    <i name="e_fr_energy">   -476.72770790 </i>
    <i name="e_wo_entrp">   -476.66817539 </i>
    <i name="e_0_energy">   -476.69794165 </i>
   </energy>
  </scstep>
  <scstep>
   <time name="diag">    0.06    0.07</time>
   <time name="diis">    0.08    0.08</time>
   <time name="orth">    0.01    0.01</time>
   <time name="total">    0.25    0.25</time>
   <dipole>
    <v name="dipole">      5.30647400      -5.30647400       7.50448750 </v>
    <i name="Tr[quadrupol]">   -643.31072215 </i>
    <i name="Echarged">      0.00000000 </i>
    <i name="Edipol_quadrupol">      0.00000000 </i>
    <i name="Eion">      0.00000000 </i>
   </dipole>
   <energy>
    <i name="e_fr_energy">   -649.17037250 </i>
    <i name="e_wo_entrp">   -649.07189666 </i>
    <i name="e_0_energy">   -649.12113458 </i>
   </energy>
  </scstep>
  <scstep>
   <time name="diag">    0.05    0.05</time>
   <time name="diis">    0.08    0.08</time>
   <time name="orth">    0.01    0.01</time>
   <time name="total">    0.21    0.21</time>
   <dipole>
    <v name="dipole">      3.86930606      -3.86930606       5.47202511 </v>
    <i name="Tr[quadrupol]">   -634.80261735 </i>
    <i name="Echarged">      0.00000000 </i>
    <i name="Edipol_quadrupol">      0.00000000 </i>
    <i name="Eion">      0.00000000 </i>
   </dipole>
   <energy>
    <i name="e_fr_energy">   -539.85020306 </i>
    <i name="e_wo_entrp">   -539.80041626 </i>
    <i name="e_0_energy">   -539.82530966 </i>
   </energy>
  </scstep>
  <scstep>
   <time name="diag">    0.04    0.04</time>
   <time name="diis">    0.08    0.08</time>
   <time name="orth">    0.01    0.01</time>
   <time name="total">    0.19    0.20</time>
   <dipole>
    <v name="dipole">      3.32385086      -3.32385086       4.70063497 </v>
    <i name="Tr[quadrupol]">   -632.05490513 </i>
    <i name="Echarged">      0.00000000 </i>
    <i name="Edipol_quadrupol">      0.00000000 </i>
    <i name="Eion">      0.00000000 </i>
   </dipole>
   <energy>
    <i name="e_fr_energy">   -495.04887917 </i>
    <i name="e_wo_entrp">   -494.99555685 </i>
    <i name="e_0_energy">   -495.02221801 </i>
   </energy>
  </scstep>
  <scstep>
   <time name="diag">    0.05    0.05</time>
   <time name="diis">    0.08    0.08</time>
   <time name="orth">    0.01    0.01</time>
   <time name="total">    0.20    0.20</time>
   <dipole>
    <v name="dipole">      2.22371338      -2.22371338       3.14480562 </v>
    <i name="Tr[quadrupol]">   -626.47748316 </i>
    <i name="Echarged">      0.00000000 </i>
    <i name="Edipol_quadrupol">      0.00000000 </i>
    <i name="Eion">      0.00000000 </i>
   </dipole>
   <energy>
    <i name="e_fr_energy">   -389.78799696 </i>
    <i name="e_wo_entrp">   -389.73197072 </i>
    <i name="e_0_energy">   -389.75998384 </i>
   </energy>
  </scstep>
  <scstep>
   <time name="diag">    0.04    0.05</time>
   <time name="diis">    0.07    0.07</time>
   <time name="orth">    0.01    0.01</time>
   <time name="total">    0.19    0.20</time>
   <dipole>
    <v name="dipole">      2.12343651      -2.12343651       3.00299272 </v>
    <i name="Tr[quadrupol]">   -625.71070382 </i>
    <i name="Echarged">      0.00000000 </i>
    <i name="Edipol_quadrupol">      0.00000000 </i>
    <i name="Eion">      0.00000000 </i>
   </dipole>
   <energy>
    <i name="e_fr_energy">   -384.03760047 </i>
    <i name="e_wo_entrp">   -383.96527434 </i>
    <i name="e_0_energy">   -384.00143741 </i>
   </energy>
  </scstep>
  <scstep>
   <time name="diag">    0.04    0.04</time>
   <time name="diis">    0.08    0.08</time>
   <time name="orth">    0.01    0.01</time>
   <time name="total">    0.20    0.20</time>
   <dipole>
    <v name="dipole">      1.14002975      -1.14002975       1.61224553 </v>
    <i name="Tr[quadrupol]">   -620.68253674 </i>
    <i name="Echarged">      0.00000000 </i>
    <i name="Edipol_quadrupol">      0.00000000 </i>
    <i name="Eion">      0.00000000 </i>
   </dipole>
   <energy>
    <i name="e_fr_energy">   -327.51058419 </i>
    <i name="e_wo_entrp">   -327.41594083 </i>
    <i name="e_0_energy">   -327.46326251 </i>
   </energy>
  </scstep>
  <scstep>
   <time name="diag">    0.05    0.05</time>
   <time name="diis">    0.10    0.11</time>
   <time name="orth">    0.06    0.12</time>
   <time name="total">    0.30    0.38</time>
   <dipole>
    <v name="dipole">     -1.12869990       1.12869990      -1.59622271 </v>
    <i name="Tr[quadrupol]">   -607.73614390 </i>
    <i name="Echarged">      0.00000000 </i>
    <i name="Edipol_quadrupol">      0.00000000 </i>
    <i name="Eion">      0.00000000 </i>
   </dipole>
   <energy>
    <i name="e_fr_energy">   -293.10218193 </i>
    <i name="e_wo_entrp">   -293.05340358 </i>
    <i name="e_0_energy">   -293.07779276 </i>
   </energy>
  </scstep>
  <scstep>
   <time name="diag">    0.05    0.05</time>
   <time name="diis">    0.08    0.09</time>
   <time name="orth">    0.01    0.01</time>
   <time name="total">    0.21    0.23</time>
   <dipole>
    <v name="dipole">     -3.19996569       3.19996569      -4.52543487 </v>
    <i name="Tr[quadrupol]">   -596.51857838 </i>
    <i name="Echarged">      0.00000000 </i>
    <i name="Edipol_quadrupol">      0.00000000 </i>
    <i name="Eion">      0.00000000 </i>
   </dipole>
   <energy>
    <i name="e_fr_energy">   -390.33304681 </i>
    <i name="e_wo_entrp">   -390.31031977 </i>
    <i name="e_0_energy">   -390.32168329 </i>
   </energy>
  </scstep>
  <scstep>
   <time name="diag">    0.04    0.04</time>
   <time name="diis">    0.08    0.08</time>
   <time name="orth">    0.01    0.01</time>
   <time name="total">    0.20    0.20</time>
   <dipole>
    <v name="dipole">     -3.42978794       3.42978794      -4.85045261 </v>
    <i name="Tr[quadrupol]">   -594.93680640 </i>
    <i name="Echarged">      0.00000000 </i>
    <i name="Edipol_quadrupol">      0.00000000 </i>
    <i name="Eion">      0.00000000 </i>
   </dipole>
   <energy>
    <i name="e_fr_energy">   -398.76350605 </i>
    <i name="e_wo_entrp">   -398.73440613 </i>
    <i name="e_0_energy">   -398.74895609 </i>
   </energy>
  </scstep>
  <scstep>
   <time name="diag">    0.05    0.05</time>
   <time name="diis">    0.08    0.08</time>
   <time name="orth">    0.01    0.01</time>
   <time name="total">    0.20    0.20</time>
   <dipole>
    <v name="dipole">     -1.76519524       1.76519524      -2.49636305 </v>
    <i name="Tr[quadrupol]">   -604.39023757 </i>
    <i name="Echarged">      0.00000000 </i>
    <i name="Edipol_quadrupol">      0.00000000 </i>
    <i name="Eion">      0.00000000 </i>
   </dipole>
   <energy>
    <i name="e_fr_energy">   -316.51480445 </i>
    <i name="e_wo_entrp">   -316.45334741 </i>
    <i name="e_0_energy">   -316.48407593 </i>
   </energy>
  </scstep>
  <scstep>
   <time name="diag">    0.05    0.05</time>
   <time name="diis">    0.08    0.08</time>
   <time name="orth">    0.01    0.01</time>
   <time name="total">    0.21    0.21</time>
   <dipole>
    <v name="dipole">     -0.03159108       0.03159108      -0.04467654 </v>
    <i name="Tr[quadrupol]">   -614.07968354 </i>
    <i name="Echarged">      0.00000000 </i>
    <i name="Edipol_quadrupol">      0.00000000 </i>
    <i name="Eion">      0.00000000 </i>
   </dipole>
   <energy>
    <i name="e_fr_energy">   -263.98054493 </i>
    <i name="e_wo_entrp">   -263.93683866 </i>
    <i name="e_0_energy">   -263.95869180 </i>
   </energy>
  </scstep>
  <scstep>
   <time name="diag">    0.04    0.04</time>
   <time name="diis">    0.07    0.07</time>
   <time name="orth">    0.01    0.01</time>
   <time name="total">    0.19    0.19</time>
   <dipole>
    <v name="dipole">      0.46904230      -0.46904230       0.66332598 </v>
    <i name="Tr[quadrupol]">   -617.18969131 </i>
    <i name="Echarged">      0.00000000 </i>
    <i name="Edipol_quadrupol">      0.00000000 </i>
    <i name="Eion">      0.00000000 </i>
   </dipole>
   <energy>
    <i name="e_fr_energy">   -260.29545482 </i>
    <i name="e_wo_entrp">   -260.22215214 </i>
    <i name="e_0_energy">   -260.25880348 </i>
   </energy>
  </scstep>
  <scstep>
   <time name="diag">    0.04    0.05</time>
   <time name="diis">    0.07    0.07</time>
   <time name="orth">    0.01    0.01</time>
   <time name="total">    0.19    0.20</time>
   <dipole>
    <v name="dipole">      0.02015243      -0.02015243       0.02849983 </v>
    <i name="Tr[quadrupol]">   -614.15055492 </i>
    <i name="Echarged">      0.00000000 </i>
    <i name="Edipol_quadrupol">      0.00000000 </i>
    <i name="Eion">      0.00000000 </i>
   </dipole>
   <energy>
    <i name="e_fr_energy">   -255.70499007 </i>
    <i name="e_wo_entrp">   -255.68799757 </i>
    <i name="e_0_energy">   -255.69649382 </i>
   </energy>
  </scstep>
  <scstep>
   <time name="diag">    0.04    0.04</time>
   <time name="diis">    0.08    0.08</time>
   <time name="orth">    0.01    0.01</time>
   <time name="total">    0.20    0.20</time>
   <dipole>
    <v name="dipole">      1.00783526      -1.00783526       1.42529429 </v>
    <i name="Tr[quadrupol]">   -619.89729363 </i>
    <i name="Echarged">      0.00000000 </i>
    <i name="Edipol_quadrupol">      0.00000000 </i>
    <i name="Eion">      0.00000000 </i>
   </dipole>
   <energy>
    <i name="e_fr_energy">   -254.67445324 </i>
    <i name="e_wo_entrp">   -254.57824275 </i>
    <i name="e_0_energy">   -254.62634800 </i>
   </energy>
  </scstep>
  <scstep>
   <time name="diag">    0.05    0.05</time>
   <time name="diis">    0.06    0.06</time>
   <time name="orth">    0.01    0.01</time>
   <time name="total">    0.19    0.19</time>
   <dipole>
    <v name="dipole">      0.97783621      -0.97783621       1.38286923 </v>
    <i name="Tr[quadrupol]">   -619.53737065 </i>
    <i name="Echarged">      0.00000000 </i>
    <i name="Edipol_quadrupol">      0.00000000 </i>
    <i name="Eion">      0.00000000 </i>
   </dipole>
   <energy>
    <i name="e_fr_energy">   -253.45069479 </i>
    <i name="e_wo_entrp">   -253.36152363 </i>
    <i name="e_0_energy">   -253.40610921 </i>
   </energy>
  </scstep>
  <scstep>
   <time name="diag">    0.05    0.05</time>
   <time name="diis">    0.07    0.07</time>
   <time name="orth">    0.01    0.01</time>
   <time name="total">    0.19    0.20</time>
   <dipole>
    <v name="dipole">      1.07999192      -1.07999192       1.52733922 </v>
    <i name="Tr[quadrupol]">   -619.96593641 </i>
    <i name="Echarged">      0.00000000 </i>
    <i name="Edipol_quadrupol">      0.00000000 </i>
    <i name="Eion">      0.00000000 </i>
   </dipole>
   <energy>
    <i name="e_fr_energy">   -256.23420017 </i>
    <i name="e_wo_entrp">   -256.18892517 </i>
    <i name="e_0_energy">   -256.21156267 </i>
   </energy>
  </scstep>
  <scstep>
   <time name="diag">    0.04    0.04</time>
   <time name="diis">    0.06    0.06</time>
   <time name="orth">    0.11    0.16</time>
   <time name="total">    0.35    0.46</time>
   <dipole>
    <v name="dipole">      1.06318279      -1.06318279       1.50356752 </v>
    <i name="Tr[quadrupol]">   -619.88378977 </i>
    <i name="Echarged">      0.00000000 </i>
    <i name="Edipol_quadrupol">      0.00000000 </i>
    <i name="Eion">      0.00000000 </i>
   </dipole>
   <energy>
    <i name="e_fr_energy">   -255.67262204 </i>
    <i name="e_wo_entrp">   -255.62568050 </i>
    <i name="e_0_energy">   -255.64915127 </i>
   </energy>
  </scstep>
  <scstep>
   <time name="diag">    0.04    0.04</time>
   <time name="diis">    0.08    0.08</time>
   <time name="orth">    0.01    0.01</time>
   <time name="total">    0.20    0.20</time>
   <dipole>
    <v name="dipole">      0.82195482      -0.82195482       1.16241966 </v>
    <i name="Tr[quadrupol]">   -619.34759086 </i>
    <i name="Echarged">      0.00000000 </i>
    <i name="Edipol_quadrupol">      0.00000000 </i>
    <i name="Eion">      0.00000000 </i>
   </dipole>
   <energy>
    <i name="e_fr_energy">   -251.24545413 </i>
    <i name="e_wo_entrp">   -251.17464908 </i>
    <i name="e_0_energy">   -251.21005161 </i>
   </energy>
  </scstep>
  <scstep>
   <time name="diag">    0.05    0.05</time>
   <time name="diis">    0.08    0.08</time>
   <time name="orth">    0.01    0.01</time>
   <time name="total">    0.25    0.25</time>
   <dipole>
    <v name="dipole">      0.22676702      -0.22676702       0.32069700 </v>
    <i name="Tr[quadrupol]">   -617.10162319 </i>
    <i name="Echarged">      0.00000000 </i>
    <i name="Edipol_quadrupol">      0.00000000 </i>
    <i name="Eion">      0.00000000 </i>
   </dipole>
   <energy>
    <i name="e_fr_energy">   -247.67021891 </i>
    <i name="e_wo_entrp">   -247.65090365 </i>
    <i name="e_0_energy">   -247.66056128 </i>
   </energy>
  </scstep>
  <scstep>
   <time name="diag">    0.05    0.05</time>
   <time name="diis">    0.08    0.08</time>
   <time name="orth">    0.01    0.01</time>
   <time name="total">    0.20    0.20</time>
   <dipole>
    <v name="dipole">      0.64634079      -0.64634079       0.91406391 </v>
    <i name="Tr[quadrupol]">   -620.68542971 </i>
    <i name="Echarged">      0.00000000 </i>
    <i name="Edipol_quadrupol">      0.00000000 </i>
    <i name="Eion">      0.00000000 </i>
   </dipole>
   <energy>
    <i name="e_fr_energy">   -239.84103275 </i>
    <i name="e_wo_entrp">   -239.79037305 </i>
    <i name="e_0_energy">   -239.81570290 </i>
   </energy>
  </scstep>
  <scstep>
   <time name="diag">    0.04    0.04</time>
   <time name="diis">    0.08    0.08</time>
   <time name="orth">    0.01    0.01</time>
   <time name="total">    0.20    0.20</time>
   <dipole>
    <v name="dipole">      0.97640000      -0.97640000       1.38083812 </v>
    <i name="Tr[quadrupol]">   -623.40268969 </i>
    <i name="Echarged">      0.00000000 </i>
    <i name="Edipol_quadrupol">      0.00000000 </i>
    <i name="Eion">      0.00000000 </i>
   </dipole>
   <energy>
    <i name="e_fr_energy">   -239.25969340 </i>
    <i name="e_wo_entrp">   -239.14944401 </i>
    <i name="e_0_energy">   -239.20456871 </i>
   </energy>
  </scstep>
  <scstep>
   <time name="diag">    0.05    0.05</time>
   <time name="diis">    0.06    0.06</time>
   <time name="orth">    0.01    0.01</time>
   <time name="total">    0.18    0.18</time>
   <dipole>
    <v name="dipole">      0.97964852      -0.97964852       1.38543222 </v>
    <i name="Tr[quadrupol]">   -623.71953630 </i>
    <i name="Echarged">      0.00000000 </i>
    <i name="Edipol_quadrupol">      0.00000000 </i>
    <i name="Eion">      0.00000000 </i>
   </dipole>
   <energy>
    <i name="e_fr_energy">   -238.36169231 </i>
    <i name="e_wo_entrp">   -238.23603103 </i>
    <i name="e_0_energy">   -238.29886167 </i>
   </energy>
  </scstep>
  <scstep>
   <time name="diag">    0.04    0.04</time>
   <time name="diis">    0.07    0.07</time>
   <time name="orth">    0.01    0.01</time>
   <time name="total">    0.19    0.19</time>
   <dipole>
    <v name="dipole">      0.99856847      -0.99856847       1.41218907 </v>
    <i name="Tr[quadrupol]">   -624.10427984 </i>
    <i name="Echarged">      0.00000000 </i>
    <i name="Edipol_quadrupol">      0.00000000 </i>
    <i name="Eion">      0.00000000 </i>
   </dipole>
   <energy>
    <i name="e_fr_energy">   -240.45076043 </i>
    <i name="e_wo_entrp">   -240.32417054 </i>
    <i name="e_0_energy">   -240.38746548 </i>
   </energy>
  </scstep>
  <scstep>
   <time name="diag">    0.05    0.05</time>
   <time name="diis">    0.08    0.08</time>
   <time name="orth">    0.01    0.01</time>
   <time name="total">    0.20    0.20</time>
   <dipole>
    <v name="dipole">      0.96526135      -0.96526135       1.36508569 </v>
    <i name="Tr[quadrupol]">   -623.63685025 </i>
    <i name="Echarged">      0.00000000 </i>
    <i name="Edipol_quadrupol">      0.00000000 </i>
    <i name="Eion">      0.00000000 </i>
   </dipole>
   <energy>
    <i name="e_fr_energy">   -245.70850155 </i>
    <i name="e_wo_entrp">   -245.60809619 </i>
    <i name="e_0_energy">   -245.65829887 </i>
   </energy>
  </scstep>
  <scstep>
   <time name="diag">    0.04    0.04</time>
   <time name="diis">    0.08    0.08</time>
   <time name="orth">    0.01    0.01</time>
   <time name="total">    0.20    0.20</time>
   <dipole>
    <v name="dipole">      1.30813835      -1.30813835       1.84998699 </v>
    <i name="Tr[quadrupol]">   -625.74038598 </i>
    <i name="Echarged">      0.00000000 </i>
    <i name="Edipol_quadrupol">      0.00000000 </i>
    <i name="Eion">      0.00000000 </i>
   </dipole>
   <energy>
    <i name="e_fr_energy">   -249.42766284 </i>
    <i name="e_wo_entrp">   -249.40263719 </i>
    <i name="e_0_energy">   -249.41515002 </i>
   </energy>
  </scstep>
  <scstep>
   <time name="diag">    0.04    0.04</time>
   <time name="diis">    0.08    0.08</time>
   <time name="orth">    0.01    0.01</time>
   <time name="total">    0.20    0.20</time>
   <dipole>
    <v name="dipole">      1.56825155      -1.56825155       2.21784262 </v>
    <i name="Tr[quadrupol]">   -627.30348206 </i>
    <i name="Echarged">      0.00000000 </i>
    <i name="Edipol_quadrupol">      0.00000000 </i>
    <i name="Eion">      0.00000000 </i>
   </dipole>
   <energy>
    <i name="e_fr_energy">   -255.09411769 </i>
    <i name="e_wo_entrp">   -255.00528365 </i>
    <i name="e_0_energy">   -255.04970067 </i>
   </energy>
  </scstep>
  <scstep>
   <time name="diag">    0.05    0.05</time>
   <time name="diis">    0.12    0.12</time>
   <time name="orth">    0.02    0.07</time>
   <time name="total">    0.26    0.31</time>
   <dipole>
    <v name="dipole">      1.47586192      -1.47586192       2.08718394 </v>
    <i name="Tr[quadrupol]">   -626.80655404 </i>
    <i name="Echarged">      0.00000000 </i>
    <i name="Edipol_quadrupol">      0.00000000 </i>
    <i name="Eion">      0.00000000 </i>
   </dipole>
   <energy>
    <i name="e_fr_energy">   -248.19705682 </i>
    <i name="e_wo_entrp">   -248.09229124 </i>
    <i name="e_0_energy">   -248.14467403 </i>
   </energy>
  </scstep>
  <scstep>
   <time name="diag">    0.04    0.04</time>
   <time name="diis">    0.07    0.07</time>
   <time name="orth">    0.01    0.01</time>
   <time name="total">    0.19    0.19</time>
   <dipole>
    <v name="dipole">      1.44566986      -1.44566986       2.04448592 </v>
    <i name="Tr[quadrupol]">   -626.72727720 </i>
    <i name="Echarged">      0.00000000 </i>
    <i name="Edipol_quadrupol">      0.00000000 </i>
    <i name="Eion">      0.00000000 </i>
   </dipole>
   <energy>
    <i name="e_fr_energy">   -247.31784212 </i>
    <i name="e_wo_entrp">   -247.20798404 </i>
    <i name="e_0_energy">   -247.26291308 </i>
   </energy>
  </scstep>
  <scstep>
   <time name="diag">    0.06    0.06</time>
   <time name="diis">    0.08    0.08</time>
   <time name="orth">    0.01    0.01</time>
   <time name="total">    0.21    0.21</time>
   <dipole>
    <v name="dipole">      2.34071601      -2.34071601       3.31027233 </v>
    <i name="Tr[quadrupol]">   -632.28082955 </i>
    <i name="Echarged">      0.00000000 </i>
    <i name="Edipol_quadrupol">      0.00000000 </i>
    <i name="Eion">      0.00000000 </i>
   </dipole>
   <energy>
    <i name="e_fr_energy">   -269.90513768 </i>
    <i name="e_wo_entrp">   -269.83063941 </i>
    <i name="e_0_energy">   -269.86788855 </i>
   </energy>
  </scstep>
  <scstep>
   <time name="diag">    0.05    0.06</time>
   <time name="diis">    0.09    0.10</time>
   <time name="orth">    0.01    0.01</time>
   <time name="total">    0.23    0.25</time>
   <dipole>
    <v name="dipole">      2.44361787      -2.44361787       3.45579753 </v>
    <i name="Tr[quadrupol]">   -632.29144295 </i>
    <i name="Echarged">      0.00000000 </i>
    <i name="Edipol_quadrupol">      0.00000000 </i>
    <i name="Eion">      0.00000000 </i>
   </dipole>
   <energy>
    <i name="e_fr_energy">   -266.89134732 </i>
    <i name="e_wo_entrp">   -266.82583729 </i>
    <i name="e_0_energy">   -266.85859231 </i>
   </energy>
  </scstep>
  <scstep>
   <time name="diag">    0.05    0.05</time>
   <time name="diis">    0.07    0.08</time>
   <time name="orth">    0.01    0.01</time>
   <time name="total">    0.21    0.23</time>
   <dipole>
    <v name="dipole">      2.48163983      -2.48163983       3.50956871 </v>
    <i name="Tr[quadrupol]">   -632.54594427 </i>
    <i name="Echarged">      0.00000000 </i>
    <i name="Edipol_quadrupol">      0.00000000 </i>
    <i name="Eion">      0.00000000 </i>
   </dipole>
   <energy>
    <i name="e_fr_energy">   -269.44327727 </i>
    <i name="e_wo_entrp">   -269.37832591 </i>
    <i name="e_0_energy">   -269.41080159 </i>
   </energy>
  </scstep>
  <scstep>
   <time name="diag">    0.04    0.04</time>
   <time name="diis">    0.08    0.08</time>
   <time name="orth">    0.01    0.01</time>
   <time name="total">    0.20    0.20</time>
   <dipole>
    <v name="dipole">      2.84738321      -2.84738321       4.02680795 </v>
    <i name="Tr[quadrupol]">   -635.97736690 </i>
    <i name="Echarged">      0.00000000 </i>
    <i name="Edipol_quadrupol">      0.00000000 </i>
    <i name="Eion">      0.00000000 </i>
   </dipole>
   <energy>
    <i name="e_fr_energy">   -287.38463754 </i>
    <i name="e_wo_entrp">   -287.31398190 </i>
    <i name="e_0_energy">   -287.34930972 </i>
   </energy>
  </scstep>
  <scstep>
   <time name="diag">    0.05    0.05</time>
   <time name="diis">    0.08    0.08</time>
   <time name="orth">    0.01    0.01</time>
   <time name="total">    0.20    0.21</time>
   <dipole>
    <v name="dipole">      2.55523220      -2.55523220       3.61364404 </v>
    <i name="Tr[quadrupol]">   -635.13416053 </i>
    <i name="Echarged">      0.00000000 </i>
    <i name="Edipol_quadrupol">      0.00000000 </i>
    <i name="Eion">      0.00000000 </i>
   </dipole>
   <energy>
    <i name="e_fr_energy">   -263.69873369 </i>
    <i name="e_wo_entrp">   -263.59301879 </i>
    <i name="e_0_energy">   -263.64587624 </i>
   </energy>
  </scstep>
  <scstep>
   <time name="diag">    0.04    0.04</time>
   <time name="diis">    0.08    0.08</time>
   <time name="orth">    0.01    0.01</time>
   <time name="total">    0.21    0.21</time>
   <dipole>
    <v name="dipole">      6.24395369      -6.24395369       8.83028399 </v>
    <i name="Tr[quadrupol]">   -661.65185241 </i>
    <i name="Echarged">      0.00000000 </i>
    <i name="Edipol_quadrupol">      0.00000000 </i>
    <i name="Eion">      0.00000000 </i>
   </dipole>
   <energy>
    <i name="e_fr_energy">   -460.66383807 </i>
    <i name="e_wo_entrp">   -460.57380269 </i>
    <i name="e_0_energy">   -460.61882038 </i>
   </energy>
  </scstep>
  <scstep>
   <time name="diag">    0.04    0.04</time>
   <time name="diis">    0.08    0.08</time>
   <time name="orth">    0.01    0.01</time>
   <time name="total">    0.20    0.20</time>
   <dipole>
    <v name="dipole">      8.13102568      -8.13102568      11.49900679 </v>
    <i name="Tr[quadrupol]">   -673.12439551 </i>
    <i name="Echarged">      0.00000000 </i>
    <i name="Edipol_quadrupol">      0.00000000 </i>
    <i name="Eion">      0.00000000 </i>
   </dipole>
   <energy>
    <i name="e_fr_energy">   -590.06193923 </i>
    <i name="e_wo_entrp">   -589.96656712 </i>
    <i name="e_0_energy">   -590.01425318 </i>
   </energy>
  </scstep>
  <scstep>
   <time name="diag">    0.05    0.05</time>
   <time name="diis">    0.08    0.08</time>
   <time name="orth">    0.01    0.01</time>
   <time name="total">    0.20    0.20</time>
   <dipole>
    <v name="dipole">      7.71827042      -7.71827042      10.91528270 </v>
    <i name="Tr[quadrupol]">   -669.60427711 </i>
    <i name="Echarged">      0.00000000 </i>
    <i name="Edipol_quadrupol">      0.00000000 </i>
    <i name="Eion">      0.00000000 </i>
   </dipole>
   <energy>
    <i name="e_fr_energy">   -559.00797828 </i>
    <i name="e_wo_entrp">   -558.94953420 </i>
    <i name="e_0_energy">   -558.97875624 </i>
   </energy>
  </scstep>
  <scstep>
   <time name="diag">    0.21    0.32</time>
   <time name="diis">    0.08    0.08</time>
   <time name="orth">    0.01    0.01</time>
   <time name="total">    0.37    0.48</time>
   <dipole>
    <v name="dipole">      7.39920905      -7.39920905      10.46406178 </v>
    <i name="Tr[quadrupol]">   -667.46541308 </i>
    <i name="Echarged">      0.00000000 </i>
    <i name="Edipol_quadrupol">      0.00000000 </i>
    <i name="Eion">      0.00000000 </i>
   </dipole>
   <energy>
    <i name="e_fr_energy">   -540.38605030 </i>
    <i name="e_wo_entrp">   -540.35065769 </i>
    <i name="e_0_energy">   -540.36835399 </i>
   </energy>
  </scstep>
  <scstep>
   <time name="diag">    0.04    0.04</time>
   <time name="diis">    0.08    0.08</time>
   <time name="orth">    0.02    0.02</time>
   <time name="total">    0.21    0.21</time>
   <dipole>
    <v name="dipole">      7.43473109      -7.43473109      10.51429754 </v>
    <i name="Tr[quadrupol]">   -667.66605926 </i>
    <i name="Echarged">      0.00000000 </i>
    <i name="Edipol_quadrupol">      0.00000000 </i>
    <i name="Eion">      0.00000000 </i>
   </dipole>
   <energy>
    <i name="e_fr_energy">   -545.27585850 </i>
    <i name="e_wo_entrp">   -545.23690720 </i>
    <i name="e_0_energy">   -545.25638285 </i>
   </energy>
  </scstep>
  <scstep>
   <time name="diag">    0.04    0.04</time>
   <time name="diis">    0.08    0.08</time>
   <time name="orth">    0.01    0.01</time>
   <time name="total">    0.20    0.20</time>
   <dipole>
    <v name="dipole">      2.79068614      -2.79068614       3.94662619 </v>
    <i name="Tr[quadrupol]">   -644.24606969 </i>
    <i name="Echarged">      0.00000000 </i>
    <i name="Edipol_quadrupol">      0.00000000 </i>
    <i name="Eion">      0.00000000 </i>
   </dipole>
   <energy>
    <i name="e_fr_energy">   -367.27479987 </i>
    <i name="e_wo_entrp">   -367.21463415 </i>
    <i name="e_0_energy">   -367.24471701 </i>
   </energy>
  </scstep>
  <scstep>
   <time name="diag">    0.05    0.05</time>
   <time name="diis">    0.08    0.08</time>
   <time name="orth">    0.01    0.01</time>
   <time name="total">    0.20    0.20</time>
   <dipole>
    <v name="dipole">      2.29800493      -2.29800493       3.24986974 </v>
    <i name="Tr[quadrupol]">   -635.42112380 </i>
    <i name="Echarged">      0.00000000 </i>
    <i name="Edipol_quadrupol">      0.00000000 </i>
    <i name="Eion">      0.00000000 </i>
   </dipole>
   <energy>
    <i name="e_fr_energy">   -236.68685518 </i>
    <i name="e_wo_entrp">   -236.53159919 </i>
    <i name="e_0_energy">   -236.60922718 </i>
   </energy>
  </scstep>
  <scstep>
   <time name="diag">    0.05    0.05</time>
   <time name="diis">    0.08    0.08</time>
   <time name="orth">    0.01    0.01</time>
   <time name="total">    0.20    0.20</time>
   <dipole>
    <v name="dipole">      2.80936789      -2.80936789       3.97304617 </v>
    <i name="Tr[quadrupol]">   -637.69638801 </i>
    <i name="Echarged">      0.00000000 </i>
    <i name="Edipol_quadrupol">      0.00000000 </i>
    <i name="Eion">      0.00000000 </i>
   </dipole>
   <energy>
    <i name="e_fr_energy">   -267.40516186 </i>
    <i name="e_wo_entrp">   -267.27068261 </i>
    <i name="e_0_energy">   -267.33792224 </i>
   </energy>
  </scstep>
  <scstep>
   <time name="diag">    0.09    0.09</time>
   <time name="diis">    0.08    0.08</time>
   <time name="orth">    0.01    0.01</time>
   <time name="total">    0.25    0.25</time>
   <dipole>
    <v name="dipole">      2.92988548      -2.92988548       4.14348379 </v>
    <i name="Tr[quadrupol]">   -637.48557332 </i>
    <i name="Echarged">      0.00000000 </i>
    <i name="Edipol_quadrupol">      0.00000000 </i>
    <i name="Eion">      0.00000000 </i>
   </dipole>
   <energy>
    <i name="e_fr_energy">   -275.55308144 </i>
    <i name="e_wo_entrp">   -275.42013585 </i>
    <i name="e_0_energy">   -275.48660864 </i>
   </energy>
  </scstep>
  <scstep>
   <time name="diag">    0.04    0.05</time>
   <time name="diis">    0.08    0.08</time>
   <time name="orth">    0.01    0.01</time>
   <time name="total">    0.20    0.20</time>
   <dipole>
    <v name="dipole">      2.79943588      -2.79943588       3.95900018 </v>
    <i name="Tr[quadrupol]">   -637.72642240 </i>
    <i name="Echarged">      0.00000000 </i>
    <i name="Edipol_quadrupol">      0.00000000 </i>
    <i name="Eion">      0.00000000 </i>
   </dipole>
   <energy>
    <i name="e_fr_energy">   -260.35993942 </i>
    <i name="e_wo_entrp">   -260.15924510 </i>
    <i name="e_0_energy">   -260.25959226 </i>
   </energy>
  </scstep>
  <scstep>
   <time name="diag">    0.04    0.05</time>
   <time name="diis">    0.08    0.08</time>
   <time name="orth">    0.01    0.01</time>
   <time name="total">    0.20    0.20</time>
   <dipole>
    <v name="dipole">      1.78433704      -1.78433704       2.52343364 </v>
    <i name="Tr[quadrupol]">   -635.37516850 </i>
    <i name="Echarged">      0.00000000 </i>
    <i name="Edipol_quadrupol">      0.00000000 </i>
    <i name="Eion">      0.00000000 </i>
   </dipole>
   <energy>
    <i name="e_fr_energy">   -276.30702471 </i>
    <i name="e_wo_entrp">   -276.11367702 </i>
    <i name="e_0_energy">   -276.21035086 </i>
   </energy>
  </scstep>
  <scstep>
   <time name="diag">    0.05    0.05</time>
   <time name="diis">    0.08    0.08</time>
   <time name="orth">    0.01    0.01</time>
   <time name="total">    0.20    0.20</time>
   <dipole>
    <v name="dipole">      0.90405697      -0.90405697       1.27852963 </v>
    <i name="Tr[quadrupol]">   -626.81964583 </i>
    <i name="Echarged">      0.00000000 </i>
    <i name="Edipol_quadrupol">      0.00000000 </i>
    <i name="Eion">      0.00000000 </i>
   </dipole>
   <energy>
    <i name="e_fr_energy">   -226.00679066 </i>
    <i name="e_wo_entrp">   -225.94169693 </i>
    <i name="e_0_energy">   -225.97424379 </i>
   </energy>
  </scstep>
  <scstep>
   <time name="diag">    0.04    0.04</time>
   <time name="diis">    0.07    0.07</time>
   <time name="orth">    0.01    0.01</time>
   <time name="total">    0.19    0.19</time>
   <dipole>
    <v name="dipole">      0.97318669      -0.97318669       1.37629382 </v>
    <i name="Tr[quadrupol]">   -627.15948032 </i>
    <i name="Echarged">      0.00000000 </i>
    <i name="Edipol_quadrupol">      0.00000000 </i>
    <i name="Eion">      0.00000000 </i>
   </dipole>
   <energy>
    <i name="e_fr_energy">   -225.24382577 </i>
    <i name="e_wo_entrp">   -225.16253790 </i>
    <i name="e_0_energy">   -225.20318184 </i>
   </energy>
  </scstep>
  <scstep>
   <time name="diag">    0.05    0.05</time>
   <time name="diis">    0.07    0.07</time>
   <time name="orth">    0.01    0.01</time>
   <time name="total">    0.28    0.28</time>
   <dipole>
    <v name="dipole">      1.03977633      -1.03977633       1.47046579 </v>
    <i name="Tr[quadrupol]">   -627.57172153 </i>
    <i name="Echarged">      0.00000000 </i>
    <i name="Edipol_quadrupol">      0.00000000 </i>
    <i name="Eion">      0.00000000 </i>
   </dipole>
   <energy>
    <i name="e_fr_energy">   -227.06662612 </i>
    <i name="e_wo_entrp">   -226.97201818 </i>
    <i name="e_0_energy">   -227.01932215 </i>
   </energy>
  </scstep>
  <scstep>
   <time name="diag">    0.04    0.04</time>
   <time name="diis">    0.07    0.07</time>
   <time name="orth">    0.01    0.01</time>
   <time name="total">    0.19    0.19</time>
   <dipole>
    <v name="dipole">      1.10244010      -1.10244010       1.55908574 </v>
    <i name="Tr[quadrupol]">   -627.61524934 </i>
    <i name="Echarged">      0.00000000 </i>
    <i name="Edipol_quadrupol">      0.00000000 </i>
    <i name="Eion">      0.00000000 </i>
   </dipole>
   <energy>
    <i name="e_fr_energy">   -223.84848288 </i>
    <i name="e_wo_entrp">   -223.79456883 </i>
    <i name="e_0_energy">   -223.82152586 </i>
   </energy>
  </scstep>
  <scstep>
   <time name="diag">    0.05    0.05</time>
   <time name="diis">    0.08    0.08</time>
   <time name="orth">    0.01    0.01</time>
   <time name="total">    0.20    0.20</time>
   <dipole>
    <v name="dipole">      0.51100608      -0.51100608       0.72267173 </v>
    <i name="Tr[quadrupol]">   -618.99251034 </i>
    <i name="Echarged">      0.00000000 </i>
    <i name="Edipol_quadrupol">      0.00000000 </i>
    <i name="Eion">      0.00000000 </i>
   </dipole>
   <energy>
    <i name="e_fr_energy">   -201.98043478 </i>
    <i name="e_wo_entrp">   -201.88656321 </i>
    <i name="e_0_energy">   -201.93349899 </i>
   </energy>
  </scstep>
  <scstep>
   <time name="diag">    0.05    0.05</time>
   <time name="diis">    0.08    0.08</time>
   <time name="orth">    0.01    0.01</time>
   <time name="total">    0.20    0.20</time>
   <dipole>
    <v name="dipole">      0.75858535      -0.75858535       1.07280170 </v>
    <i name="Tr[quadrupol]">   -623.83319544 </i>
    <i name="Echarged">      0.00000000 </i>
    <i name="Edipol_quadrupol">      0.00000000 </i>
    <i name="Eion">      0.00000000 </i>
   </dipole>
   <energy>
    <i name="e_fr_energy">   -221.22123292 </i>
    <i name="e_wo_entrp">   -221.15834579 </i>
    <i name="e_0_energy">   -221.18978936 </i>
   </energy>
  </scstep>
  <scstep>
   <time name="diag">    0.04    0.04</time>
   <time name="diis">    0.08    0.08</time>
   <time name="orth">    0.02    0.02</time>
   <time name="total">    0.21    0.21</time>
   <dipole>
    <v name="dipole">      0.73883682      -0.73883682       1.04487305 </v>
    <i name="Tr[quadrupol]">   -621.57105745 </i>
    <i name="Echarged">      0.00000000 </i>
    <i name="Edipol_quadrupol">      0.00000000 </i>
    <i name="Eion">      0.00000000 </i>
   </dipole>
   <energy>
    <i name="e_fr_energy">   -203.91506056 </i>
    <i name="e_wo_entrp">   -203.78589689 </i>
    <i name="e_0_energy">   -203.85047873 </i>
   </energy>
  </scstep>
  <scstep>
   <time name="diag">    0.04    0.04</time>
   <time name="diis">    0.08    0.08</time>
   <time name="orth">    0.01    0.01</time>
   <time name="total">    0.20    0.20</time>
   <dipole>
    <v name="dipole">      0.67818007      -0.67818007       0.95909145 </v>
    <i name="Tr[quadrupol]">   -621.02174658 </i>
    <i name="Echarged">      0.00000000 </i>
    <i name="Edipol_quadrupol">      0.00000000 </i>
    <i name="Eion">      0.00000000 </i>
   </dipole>
   <energy>
    <i name="e_fr_energy">   -205.00021388 </i>
    <i name="e_wo_entrp">   -204.89747865 </i>
    <i name="e_0_energy">   -204.94884627 </i>
   </energy>
  </scstep>
  <scstep>
   <time name="diag">    0.05    0.05</time>
   <time name="diis">    0.07    0.07</time>
   <time name="orth">    0.01    0.01</time>
   <time name="total">    0.19    0.19</time>
   <dipole>
    <v name="dipole">      0.68476812      -0.68476812       0.96840837 </v>
    <i name="Tr[quadrupol]">   -621.04935440 </i>
    <i name="Echarged">      0.00000000 </i>
    <i name="Edipol_quadrupol">      0.00000000 </i>
    <i name="Eion">      0.00000000 </i>
   </dipole>
   <energy>
    <i name="e_fr_energy">   -204.91938239 </i>
    <i name="e_wo_entrp">   -204.82110902 </i>
    <i name="e_0_energy">   -204.87024570 </i>
   </energy>
  </scstep>
  <scstep>
   <time name="diag">    0.05    0.05</time>
   <time name="diis">    0.08    0.08</time>
   <time name="orth">    0.01    0.01</time>
   <time name="total">    0.20    0.20</time>
   <dipole>
    <v name="dipole">      0.94318598      -0.94318598       1.33386640 </v>
    <i name="Tr[quadrupol]">   -622.10498171 </i>
    <i name="Echarged">      0.00000000 </i>
    <i name="Edipol_quadrupol">      0.00000000 </i>
    <i name="Eion">      0.00000000 </i>
   </dipole>
   <energy>
    <i name="e_fr_energy">   -226.89386247 </i>
    <i name="e_wo_entrp">   -226.82336361 </i>
    <i name="e_0_energy">   -226.85861304 </i>
   </energy>
  </scstep>
  <scstep>
   <time name="diag">    0.05    0.05</time>
   <time name="diis">    0.08    0.08</time>
   <time name="orth">    0.01    0.01</time>
   <time name="total">    0.20    0.20</time>
   <dipole>
    <v name="dipole">      0.18455858      -0.18455858       0.26100524 </v>
    <i name="Tr[quadrupol]">   -619.26369316 </i>
    <i name="Echarged">      0.00000000 </i>
    <i name="Edipol_quadrupol">      0.00000000 </i>
    <i name="Eion">      0.00000000 </i>
   </dipole>
   <energy>
    <i name="e_fr_energy">   -224.50146199 </i>
    <i name="e_wo_entrp">   -224.43596616 </i>
    <i name="e_0_energy">   -224.46871408 </i>
   </energy>
  </scstep>
  <scstep>
   <time name="diag">    0.05    0.05</time>
   <time name="diis">    0.08    0.08</time>
   <time name="orth">    0.01    0.01</time>
   <time name="total">    0.21    0.21</time>
   <dipole>
    <v name="dipole">      0.46980043      -0.46980043       0.66439814 </v>
    <i name="Tr[quadrupol]">   -621.80922572 </i>
    <i name="Echarged">      0.00000000 </i>
    <i name="Edipol_quadrupol">      0.00000000 </i>
    <i name="Eion">      0.00000000 </i>
   </dipole>
   <energy>
    <i name="e_fr_energy">   -223.00543821 </i>
    <i name="e_wo_entrp">   -222.93433264 </i>
    <i name="e_0_energy">   -222.96988542 </i>
   </energy>
  </scstep>
  <scstep>
   <time name="diag">    0.16    0.27</time>
   <time name="diis">    0.08    0.08</time>
   <time name="orth">    0.01    0.01</time>
   <time name="total">    0.37    0.47</time>
   <dipole>
    <v name="dipole">      0.82428973      -0.82428973       1.16572171 </v>
    <i name="Tr[quadrupol]">   -624.98980915 </i>
    <i name="Echarged">      0.00000000 </i>
    <i name="Edipol_quadrupol">      0.00000000 </i>
    <i name="Eion">      0.00000000 </i>
   </dipole>
   <energy>
    <i name="e_fr_energy">   -219.06295650 </i>
    <i name="e_wo_entrp">   -219.00683766 </i>
    <i name="e_0_energy">   -219.03489708 </i>
   </energy>
  </scstep>
  <scstep>
   <time name="diag">    0.05    0.05</time>
   <time name="diis">    0.08    0.08</time>
   <time name="orth">    0.01    0.01</time>
   <time name="total">    0.20    0.20</time>
   <dipole>
    <v name="dipole">      1.05394925      -1.05394925       1.49050932 </v>
    <i name="Tr[quadrupol]">   -626.22054415 </i>
    <i name="Echarged">      0.00000000 </i>
    <i name="Edipol_quadrupol">      0.00000000 </i>
    <i name="Eion">      0.00000000 </i>
   </dipole>
   <energy>
    <i name="e_fr_energy">   -220.44567051 </i>
    <i name="e_wo_entrp">   -220.34566423 </i>
    <i name="e_0_energy">   -220.39566737 </i>
   </energy>
  </scstep>
  <scstep>
   <time name="diag">    0.05    0.05</time>
   <time name="diis">    0.08    0.08</time>
   <time name="orth">    0.01    0.01</time>
   <time name="total">    0.20    0.21</time>
   <dipole>
    <v name="dipole">      0.92640759      -0.92640759       1.31013818 </v>
    <i name="Tr[quadrupol]">   -625.65905566 </i>
    <i name="Echarged">      0.00000000 </i>
    <i name="Edipol_quadrupol">      0.00000000 </i>
    <i name="Eion">      0.00000000 </i>
   </dipole>
   <energy>
    <i name="e_fr_energy">   -217.65894024 </i>
    <i name="e_wo_entrp">   -217.55958744 </i>
    <i name="e_0_energy">   -217.60926384 </i>
   </energy>
  </scstep>
  <scstep>
   <time name="diag">    0.05    0.05</time>
   <time name="diis">    0.08    0.08</time>
   <time name="orth">    0.01    0.01</time>
   <time name="total">    0.21    0.21</time>
   <dipole>
    <v name="dipole">      1.17804210      -1.17804210       1.66600312 </v>
    <i name="Tr[quadrupol]">   -626.31525536 </i>
    <i name="Echarged">      0.00000000 </i>
    <i name="Edipol_quadrupol">      0.00000000 </i>
    <i name="Eion">      0.00000000 </i>
   </dipole>
   <energy>
    <i name="e_fr_energy">   -219.72771831 </i>
    <i name="e_wo_entrp">   -219.59342669 </i>
    <i name="e_0_energy">   -219.66057250 </i>
   </energy>
  </scstep>
  <scstep>
   <time name="diag">    0.04    0.04</time>
   <time name="diis">    0.08    0.08</time>
   <time name="orth">    0.01    0.01</time>
   <time name="total">    0.20    0.20</time>
   <dipole>
    <v name="dipole">      1.23715775      -1.23715775       1.74960527 </v>
    <i name="Tr[quadrupol]">   -625.96971064 </i>
    <i name="Echarged">      0.00000000 </i>
    <i name="Edipol_quadrupol">      0.00000000 </i>
    <i name="Eion">      0.00000000 </i>
   </dipole>
   <energy>
    <i name="e_fr_energy">   -222.12464767 </i>
    <i name="e_wo_entrp">   -221.98413005 </i>
    <i name="e_0_energy">   -222.05438886 </i>
   </energy>
  </scstep>
  <scstep>
   <time name="diag">    0.04    0.05</time>
   <time name="diis">    0.08    0.08</time>
   <time name="orth">    0.01    0.01</time>
   <time name="total">    0.20    0.20</time>
   <dipole>
    <v name="dipole">      1.28473460      -1.28473460       1.81688910 </v>
    <i name="Tr[quadrupol]">   -625.98393962 </i>
    <i name="Echarged">      0.00000000 </i>
    <i name="Edipol_quadrupol">      0.00000000 </i>
    <i name="Eion">      0.00000000 </i>
   </dipole>
   <energy>
    <i name="e_fr_energy">   -223.53964602 </i>
    <i name="e_wo_entrp">   -223.39543871 </i>
    <i name="e_0_energy">   -223.46754237 </i>
   </energy>
  </scstep>
  <scstep>
   <time name="diag">    0.04    0.05</time>
   <time name="diis">    0.07    0.07</time>
   <time name="orth">    0.01    0.01</time>
   <time name="total">    0.19    0.19</time>
   <dipole>
[...]
       <r>  -13.7334    1.0000 </r>
       <r>  -13.7037    1.0000 </r>
       <r>  -12.8106    1.0000 </r>
       <r>   -7.4304    1.0000 </r>
       <r>   -6.2647    1.0000 </r>
       <r>   -6.1080    1.0000 </r>
       <r>   -5.5536    1.0000 </r>
       <r>   -5.4582    1.0000 </r>
       <r>   -5.1022    1.0000 </r>
       <r>   -4.6084    1.0000 </r>
       <r>   -4.1124    1.0000 </r>
       <r>   -3.7705    1.0000 </r>
       <r>   -3.3608    1.0000 </r>
       <r>   -3.2455    1.0000 </r>
       <r>   -2.9483    1.0000 </r>
       <r>   -2.6090    1.0000 </r>
       <r>   -2.0245    1.0000 </r>
       <r>   -1.7927    1.0000 </r>
       <r>   -1.6043    1.0000 </r>
       <r>   -1.2596    1.0000 </r>
       <r>   -0.8654    1.0000 </r>
       <r>   -0.4877    1.0000 </r>
       <r>   -0.3347    1.0000 </r>
       <r>   -0.2311    1.0000 </r>
       <r>   -0.0891    1.0000 </r>
       <r>    0.2907    1.0000 </r>
       <r>    0.4210    1.0000 </r>
       <r>    0.6278    1.0000 </r>
       <r>    0.7863    1.0000 </r>
       <r>    0.9435    1.0000 </r>
       <r>    1.0327    1.0000 </r>
       <r>    1.3125    1.0000 </r>
       <r>    1.5660    1.0000 </r>
       <r>    1.8820    1.0000 </r>
       <r>    2.2054    1.0000 </r>
       <r>    2.3560    1.0000 </r>
       <r>    2.5613    1.0000 </r>
       <r>    2.7301    1.0000 </r>
       <r>    2.8160    1.0000 </r>
       <r>    2.9018    0.9989 </r>
       <r>    2.9178    0.9978 </r>
       <r>    2.9746    0.9793 </r>
       <r>    2.9963    0.9584 </r>
       <r>    3.1038    0.5841 </r>
       <r>    3.1434    0.3640 </r>
       <r>    3.1534    0.3122 </r>
       <r>    3.2049    0.1116 </r>
       <r>    3.2530    0.0288 </r>
       <r>    3.4153    0.0000 </r>
       <r>    3.4899    0.0000 </r>
       <r>    3.7096    0.0000 </r>
       <r>    3.8034    0.0000 </r>
       <r>    3.8421    0.0000 </r>
       <r>    4.0287    0.0000 </r>
       <r>    4.3610    0.0000 </r>
       <r>    4.7357    0.0000 </r>
       <r>    5.5249    0.0000 </r>
       <r>    5.7722    0.0000 </r>
       <r>    5.8720    0.0000 </r>
       <r>    6.4812    0.0000 </r>
      </set>
     </set>
    </set>
   </array>
  </eigenvalues>
  <separator name="orbital magnetization" >
   <v name="MAGDIPOLOUT">      0.00000000      0.00000000      0.00000000</v>
  </separator>
  <dos>
   <i name="efermi">      3.11879339 </i>
   <total>
    <array>
     <dimension dim="1">gridpoints</dimension>
     <dimension dim="2">spin</dimension>
     <field>energy</field>
     <field>total</field>
     <field>integrated</field>
     <set>
      <set comment="spin 1">
       <r>   -18.9170     0.0000     0.0000 </r>
       <r>   -18.8283     0.0000     0.0000 </r>
       <r>   -18.7396     0.0000     0.0000 </r>
       <r>   -18.6510     0.0000     0.0000 </r>
       <r>   -18.5623     0.0000     0.0000 </r>
       <r>   -18.4736     0.0000     0.0000 </r>
       <r>   -18.3849     0.0000     0.0000 </r>
       <r>   -18.2962     0.0000     0.0000 </r>
       <r>   -18.2075     0.0000     0.0000 </r>
       <r>   -18.1188     0.0000     0.0000 </r>
       <r>   -18.0301     0.0000     0.0000 </r>
       <r>   -17.9414     0.0014     0.0001 </r>
       <r>   -17.8527     0.0672     0.0061 </r>
       <r>   -17.7640     0.9481     0.0902 </r>
       <r>   -17.6753     4.5707     0.4956 </r>
       <r>   -17.5866     8.7741     1.2737 </r>
       <r>   -17.4980     6.5099     1.8511 </r>
       <r>   -17.4093     1.5721     1.9906 </r>
       <r>   -17.3206     0.1048     1.9998 </r>
       <r>   -17.2319     0.0018     2.0000 </r>
       <r>   -17.1432     0.0058     2.0005 </r>
       <r>   -17.0545     0.2133     2.0194 </r>
       <r>   -16.9658     2.1253     2.2079 </r>
       <r>   -16.8771     7.0771     2.8356 </r>
       <r>   -16.7884     8.8935     3.6244 </r>
       <r>   -16.6997     3.7698     3.9588 </r>
       <r>   -16.6110     0.4513     3.9988 </r>
       <r>   -16.5223     0.0136     4.0000 </r>
       <r>   -16.4336     0.0001     4.0000 </r>
       <r>   -16.3450     0.0000     4.0000 </r>
       <r>   -16.2563     0.0000     4.0000 </r>
       <r>   -16.1676     0.0031     4.0003 </r>
       <r>   -16.0789     0.1330     4.0121 </r>
       <r>   -15.9902     1.5512     4.1497 </r>
       <r>   -15.9015     6.0757     4.6885 </r>
       <r>   -15.8128     9.0433     5.4906 </r>
       <r>   -15.7241     4.8622     5.9218 </r>
       <r>   -15.6354     0.8392     5.9963 </r>
       <r>   -15.5467     0.0416     6.0000 </r>
       <r>   -15.4580     0.0005     6.0000 </r>
       <r>   -15.3693     0.0000     6.0000 </r>
       <r>   -15.2806     0.0000     6.0000 </r>
       <r>   -15.1920     0.0013     6.0001 </r>
       <r>   -15.1033     0.0759     6.0069 </r>
       <r>   -15.0146     1.1680     6.1104 </r>
       <r>   -14.9259     5.5970     6.6069 </r>
       <r>   -14.8372     9.4083     7.4413 </r>
       <r>   -14.7485     5.3493     7.9157 </r>
       <r>   -14.6598     0.9084     7.9963 </r>
       <r>   -14.5711     0.0412     8.0000 </r>
       <r>   -14.4824     0.0005     8.0000 </r>
       <r>   -14.3937     0.0000     8.0000 </r>
       <r>   -14.3050     0.0000     8.0000 </r>
       <r>   -14.2163     0.0000     8.0000 </r>
       <r>   -14.1277     0.0001     8.0000 </r>
       <r>   -14.0390     0.0076     8.0007 </r>
       <r>   -13.9503     0.2694     8.0246 </r>
       <r>   -13.8616     2.8707     8.2792 </r>
       <r>   -13.7729    11.8374     9.3291 </r>
       <r>   -13.6842    18.9499    11.0098 </r>
       <r>   -13.5955     9.7240    11.8722 </r>
       <r>   -13.5068     1.3893    11.9954 </r>
       <r>   -13.4181     0.0509    12.0000 </r>
       <r>   -13.3294     0.0004    12.0000 </r>
       <r>   -13.2407     0.0000    12.0000 </r>
       <r>   -13.1520     0.0006    12.0000 </r>
       <r>   -13.0633     0.0402    12.0036 </r>
       <r>   -12.9747     0.8210    12.0764 </r>
       <r>   -12.8860     5.1119    12.5298 </r>
       <r>   -12.7973     9.8717    13.4054 </r>
       <r>   -12.7086     5.7257    13.9132 </r>
       <r>   -12.6199     0.9381    13.9964 </r>
       <r>   -12.5312     0.0402    14.0000 </r>
       <r>   -12.4425     0.0004    14.0000 </r>
       <r>   -12.3538     0.0000    14.0000 </r>
       <r>   -12.2651     0.0000    14.0000 </r>
       <r>   -12.1764     0.0000    14.0000 </r>
       <r>   -12.0877     0.0000    14.0000 </r>
       <r>   -11.9990     0.0000    14.0000 </r>
       <r>   -11.9103     0.0000    14.0000 </r>
       <r>   -11.8217     0.0000    14.0000 </r>
       <r>   -11.7330     0.0000    14.0000 </r>
       <r>   -11.6443     0.0000    14.0000 </r>
       <r>   -11.5556     0.0000    14.0000 </r>
       <r>   -11.4669     0.0000    14.0000 </r>
       <r>   -11.3782     0.0000    14.0000 </r>
       <r>   -11.2895     0.0000    14.0000 </r>
       <r>   -11.2008     0.0000    14.0000 </r>
       <r>   -11.1121     0.0000    14.0000 </r>
       <r>   -11.0234     0.0000    14.0000 </r>
       <r>   -10.9347     0.0000    14.0000 </r>
       <r>   -10.8460     0.0000    14.0000 </r>
       <r>   -10.7573     0.0000    14.0000 </r>
       <r>   -10.6687     0.0000    14.0000 </r>
       <r>   -10.5800     0.0000    14.0000 </r>
       <r>   -10.4913     0.0000    14.0000 </r>
       <r>   -10.4026     0.0000    14.0000 </r>
       <r>   -10.3139     0.0000    14.0000 </r>
       <r>   -10.2252     0.0000    14.0000 </r>
       <r>   -10.1365     0.0000    14.0000 </r>
       <r>   -10.0478     0.0000    14.0000 </r>
       <r>    -9.9591     0.0000    14.0000 </r>
       <r>    -9.8704     0.0000    14.0000 </r>
       <r>    -9.7817     0.0000    14.0000 </r>
       <r>    -9.6930     0.0000    14.0000 </r>
       <r>    -9.6044     0.0000    14.0000 </r>
       <r>    -9.5157     0.0000    14.0000 </r>
       <r>    -9.4270     0.0000    14.0000 </r>
       <r>    -9.3383     0.0000    14.0000 </r>
       <r>    -9.2496     0.0000    14.0000 </r>
       <r>    -9.1609     0.0000    14.0000 </r>
       <r>    -9.0722     0.0000    14.0000 </r>
       <r>    -8.9835     0.0000    14.0000 </r>
       <r>    -8.8948     0.0000    14.0000 </r>
       <r>    -8.8061     0.0000    14.0000 </r>
       <r>    -8.7174     0.0000    14.0000 </r>
       <r>    -8.6287     0.0000    14.0000 </r>
       <r>    -8.5400     0.0000    14.0000 </r>
       <r>    -8.4514     0.0000    14.0000 </r>
       <r>    -8.3627     0.0000    14.0000 </r>
       <r>    -8.2740     0.0000    14.0000 </r>
       <r>    -8.1853     0.0000    14.0000 </r>
       <r>    -8.0966     0.0000    14.0000 </r>
       <r>    -8.0079     0.0000    14.0000 </r>
       <r>    -7.9192     0.0000    14.0000 </r>
       <r>    -7.8305     0.0000    14.0000 </r>
       <r>    -7.7418     0.0001    14.0000 </r>
       <r>    -7.6531     0.0178    14.0016 </r>
       <r>    -7.5644     0.6234    14.0569 </r>
       <r>    -7.4757     5.1699    14.5154 </r>
       <r>    -7.3870    10.5793    15.4537 </r>
       <r>    -7.2984     5.4457    15.9367 </r>
       <r>    -7.2097     0.6926    15.9981 </r>
       <r>    -7.1210     0.0209    16.0000 </r>
       <r>    -7.0323     0.0001    16.0000 </r>
       <r>    -6.9436     0.0000    16.0000 </r>
       <r>    -6.8549     0.0000    16.0000 </r>
       <r>    -6.7662     0.0000    16.0000 </r>
       <r>    -6.6775     0.0001    16.0000 </r>
       <r>    -6.5888     0.0126    16.0011 </r>
       <r>    -6.5001     0.3691    16.0339 </r>
       <r>    -6.4114     2.7671    16.2793 </r>
       <r>    -6.3227     6.5276    16.8582 </r>
       <r>    -6.2340     7.1472    17.4921 </r>
       <r>    -6.1454     5.7456    18.0017 </r>
       <r>    -6.0567     5.1357    18.4572 </r>
       <r>    -5.9680     2.1654    18.6493 </r>
       <r>    -5.8793     0.7481    18.7156 </r>
       <r>    -5.7906     2.0164    18.8945 </r>
       <r>    -5.7019     3.2546    19.1831 </r>
       <r>    -5.6132     4.4572    19.5784 </r>
       <r>    -5.5245    12.3358    20.6725 </r>
       <r>    -5.4358    19.7357    22.4229 </r>
       <r>    -5.3471    12.5434    23.5354 </r>
       <r>    -5.2584     5.4172    24.0159 </r>
       <r>    -5.1697     4.9989    24.4593 </r>
       <r>    -5.0811     5.8481    24.9779 </r>
       <r>    -4.9924     3.4107    25.2804 </r>
       <r>    -4.9037     0.9151    25.3616 </r>
       <r>    -4.8150     2.1972    25.5565 </r>
       <r>    -4.7263     3.9768    25.9092 </r>
       <r>    -4.6376     4.8487    26.3392 </r>
       <r>    -4.5489     6.8156    26.9437 </r>
       <r>    -4.4602     6.0330    27.4788 </r>
       <r>    -4.3715     4.3618    27.8657 </r>
       <r>    -4.2828     2.2962    28.0693 </r>
       <r>    -4.1941     3.5518    28.3843 </r>
       <r>    -4.1054     5.7852    28.8974 </r>
       <r>    -4.0167     4.1958    29.2696 </r>
       <r>    -3.9281     2.7371    29.5123 </r>
       <r>    -3.8394     6.1537    30.0581 </r>
       <r>    -3.7507     7.9235    30.7609 </r>
       <r>    -3.6620     5.9513    31.2887 </r>
       <r>    -3.5733     4.6433    31.7005 </r>
       <r>    -3.4846     5.2271    32.1641 </r>
       <r>    -3.3959     6.3959    32.7314 </r>
       <r>    -3.3072    10.4336    33.6568 </r>
       <r>    -3.2185    12.2681    34.7449 </r>
       <r>    -3.1298     7.0970    35.3743 </r>
       <r>    -3.0411     5.3674    35.8503 </r>
       <r>    -2.9524     7.8343    36.5452 </r>
       <r>    -2.8637     7.7793    37.2352 </r>
       <r>    -2.7751     5.3135    37.7064 </r>
       <r>    -2.6864     4.3443    38.0917 </r>
       <r>    -2.5977     6.4787    38.6663 </r>
       <r>    -2.5090     7.0437    39.2911 </r>
       <r>    -2.4203     3.9237    39.6391 </r>
       <r>    -2.3316     4.4612    40.0347 </r>
       <r>    -2.2429     4.7357    40.4547 </r>
       <r>    -2.1542     2.4290    40.6702 </r>
       <r>    -2.0655     3.3026    40.9631 </r>
       <r>    -1.9768     7.3415    41.6142 </r>
       <r>    -1.8881     7.2735    42.2593 </r>
       <r>    -1.7994     6.9041    42.8717 </r>
       <r>    -1.7107     7.9200    43.5741 </r>
       <r>    -1.6221     8.3971    44.3189 </r>
       <r>    -1.5334     8.1523    45.0419 </r>
       <r>    -1.4447     6.0706    45.5803 </r>
       <r>    -1.3560     5.2443    46.0454 </r>
       <r>    -1.2673     7.7750    46.7350 </r>
       <r>    -1.1786     9.1908    47.5502 </r>
       <r>    -1.0899     5.0856    48.0012 </r>
       <r>    -1.0012     3.8872    48.3460 </r>
       <r>    -0.9125     6.7873    48.9480 </r>
       <r>    -0.8238     8.3109    49.6851 </r>
       <r>    -0.7351     5.2947    50.1547 </r>
       <r>    -0.6464     5.1157    50.6084 </r>
       <r>    -0.5577     4.3912    50.9979 </r>
       <r>    -0.4691     6.2273    51.5502 </r>
       <r>    -0.3804    10.7845    52.5067 </r>
       <r>    -0.2917    15.5959    53.8899 </r>
       <r>    -0.2030    16.6331    55.3652 </r>
       <r>    -0.1143    13.9745    56.6046 </r>
       <r>    -0.0256    11.9363    57.6632 </r>
       <r>     0.0631     6.3049    58.2224 </r>
       <r>     0.1518     3.6910    58.5498 </r>
       <r>     0.2405     4.9870    58.9921 </r>
       <r>     0.3292     7.2065    59.6313 </r>
       <r>     0.4179     8.9058    60.4211 </r>
       <r>     0.5066     9.7794    61.2885 </r>
       <r>     0.5952    12.0872    62.3605 </r>
       <r>     0.6839    15.9303    63.7734 </r>
       <r>     0.7726    14.5739    65.0660 </r>
       <r>     0.8613    13.0483    66.2233 </r>
       <r>     0.9500    15.9402    67.6371 </r>
       <r>     1.0387    16.9713    69.1423 </r>
       <r>     1.1274     8.9449    69.9356 </r>
       <r>     1.2161     5.2185    70.3985 </r>
       <r>     1.3048     8.6534    71.1660 </r>
       <r>     1.3935     9.2047    71.9823 </r>
       <r>     1.4822     6.0666    72.5204 </r>
       <r>     1.5709     7.5281    73.1881 </r>
       <r>     1.6596     7.1635    73.8234 </r>
       <r>     1.7482     3.1712    74.1047 </r>
       <r>     1.8369     5.8265    74.6215 </r>
       <r>     1.9256    10.2996    75.5349 </r>
       <r>     2.0143     8.1979    76.2620 </r>
       <r>     2.1030     5.8810    76.7836 </r>
       <r>     2.1917    10.0877    77.6783 </r>
       <r>     2.2804    11.7644    78.7217 </r>
       <r>     2.3691     9.2713    79.5440 </r>
       <r>     2.4578     9.8775    80.4201 </r>
       <r>     2.5465     8.6657    81.1887 </r>
       <r>     2.6352     7.2858    81.8349 </r>
       <r>     2.7239    10.2320    82.7424 </r>
       <r>     2.8126    18.1590    84.3529 </r>
       <r>     2.9012    29.5979    86.9780 </r>
       <r>     2.9899    41.5231    90.6608 </r>
       <r>     3.0786    40.7982    94.2793 </r>
       <r>     3.1673    44.0088    98.1825 </r>
       <r>     3.2560    37.0020   101.4643 </r>
       <r>     3.3447    18.1032   103.0699 </r>
       <r>     3.4334    13.7071   104.2856 </r>
       <r>     3.5221    17.7460   105.8596 </r>
       <r>     3.6108    14.1073   107.1108 </r>
       <r>     3.6995    16.0068   108.5304 </r>
       <r>     3.7882    19.3176   110.2438 </r>
       <r>     3.8769    21.4229   112.1438 </r>
       <r>     3.9656    16.9543   113.6475 </r>
       <r>     4.0542    13.1796   114.8165 </r>
       <r>     4.1429     9.1770   115.6304 </r>
       <r>     4.2316     4.8092   116.0569 </r>
       <r>     4.3203     5.7409   116.5661 </r>
       <r>     4.4090     9.1577   117.3783 </r>
       <r>     4.4977     6.6987   117.9724 </r>
       <r>     4.5864     2.6967   118.2116 </r>
       <r>     4.6751     3.3385   118.5077 </r>
       <r>     4.7638     8.7837   119.2868 </r>
       <r>     4.8525     7.9252   119.9897 </r>
       <r>     4.9412     3.1008   120.2647 </r>
       <r>     5.0299     2.4299   120.4802 </r>
       <r>     5.1185     1.7418   120.6347 </r>
       <r>     5.2072     0.3442   120.6652 </r>
       <r>     5.2959     0.0224   120.6672 </r>
       <r>     5.3846     0.2340   120.6879 </r>
       <r>     5.4733     2.2197   120.8848 </r>
       <r>     5.5620     6.1701   121.4321 </r>
       <r>     5.6507     8.3779   122.1751 </r>
       <r>     5.7394    10.2596   123.0851 </r>
       <r>     5.8281    11.2067   124.0790 </r>
       <r>     5.9168    10.5980   125.0190 </r>
       <r>     6.0055     7.0784   125.6468 </r>
       <r>     6.0942     4.4808   126.0442 </r>
       <r>     6.1829     5.1195   126.4982 </r>
       <r>     6.2715     3.8354   126.8384 </r>
       <r>     6.3602     2.8031   127.0870 </r>
       <r>     6.4489     3.4713   127.3949 </r>
       <r>     6.5376     4.6932   127.8111 </r>
       <r>     6.6263     1.9283   127.9822 </r>
       <r>     6.7150     0.1963   127.9996 </r>
       <r>     6.8037     0.0047   128.0000 </r>
       <r>     6.8924     0.0000   128.0000 </r>
       <r>     6.9811     0.0000   128.0000 </r>
       <r>     7.0698     0.0000   128.0000 </r>
       <r>     7.1585     0.0000   128.0000 </r>
       <r>     7.2472     0.0000   128.0000 </r>
       <r>     7.3359     0.0000   128.0000 </r>
       <r>     7.4245     0.0000   128.0000 </r>
       <r>     7.5132     0.0000   128.0000 </r>
       <r>     7.6019     0.0000   128.0000 </r>
       <r>     7.6906     0.0000   128.0000 </r>
      </set>
     </set>
    </array>
   </total>
  </dos>
 </calculation>
 <structure name="finalpos" >
  <crystal>
   <varray name="basis" >
    <v>      -3.15184252      -3.15184252       0.00000000 </v>
    <v>       4.45737844      -4.45737844       0.00000000 </v>
    <v>      15.17135004     -15.17135004      21.45552898 </v>
   </varray>
   <i name="volume">    602.85551942 </i>
   <varray name="rec_basis" >
    <v>      -0.15863737      -0.15863737       0.00000000 </v>
    <v>       0.11217356      -0.11217356      -0.15863737 </v>
    <v>       0.00000000       0.00000000       0.04660803 </v>
   </varray>
  </crystal>
  <varray name="positions" >
   <v>       0.50000017       0.49999983       0.27964820 </v>
   <v>       0.00000010       0.49999983       0.35309880 </v>
   <v>       0.50000017       0.99999990       0.27964820 </v>
   <v>       0.50000017       0.49999983       0.35309880 </v>
   <v>       0.00000010       0.49999983       0.42654940 </v>
   <v>       0.50000017       0.99999990       0.35309880 </v>
   <v>       0.50000017       0.49999983       0.42654940 </v>
   <v>       0.00000010       0.49999983       0.50000000 </v>
   <v>       0.50000017       0.99999990       0.42654940 </v>
   <v>       0.50000017       0.49999983       0.50000000 </v>
   <v>       0.00000010       0.49999983       0.57345060 </v>
   <v>       0.50000017       0.99999990       0.50000000 </v>
   <v>       0.50000017       0.49999983       0.57345060 </v>
   <v>       0.00000010       0.49999983       0.64690120 </v>
   <v>       0.50000017       0.99999990       0.57345060 </v>
   <v>       0.50000017       0.49999983       0.64690120 </v>
   <v>       0.00000010       0.49999983       0.72035180 </v>
   <v>       0.50000017       0.99999990       0.64690120 </v>
   <v>       0.50000017       0.49999983       0.35309880 </v>
   <v>       0.50000017       0.49999983       0.42654940 </v>
   <v>       0.50000017       0.49999983       0.50000000 </v>
   <v>       0.50000017       0.49999983       0.57345060 </v>
   <v>       0.50000017       0.49999983       0.64690120 </v>
   <v>       0.50000017       0.49999983       0.72035180 </v>
   <v>       0.00000010       0.99999990       0.35309878 </v>
   <v>       0.00000010       0.99999990       0.42654938 </v>
   <v>       0.00000010       0.99999990       0.49999998 </v>
   <v>       0.00000010       0.99999990       0.57345058 </v>
   <v>       0.00000010       0.99999990       0.64690118 </v>
   <v>       0.00000010       0.99999990       0.72035178 </v>
  </varray>
 </structure>
</modeling>
