unknown system                          
           1
    -3.151843   -3.151843    0.000000
     4.457378   -4.457378    0.000000
    15.171350  -15.171350   21.455529
   Na   O    Cl
    18     6     6
Direct configuration=     1
   0.50000017  0.49999983  0.27964820
   0.00000010  0.49999983  0.35309880
   0.50000017  0.99999990  0.27964820
   0.50000017  0.49999983  0.35309880
   0.00000010  0.49999983  0.42654940
   0.50000017  0.99999990  0.35309880
   0.50000017  0.49999983  0.42654940
   0.00000010  0.49999983  0.50000000
   0.50000017  0.99999990  0.42654940
   0.50000017  0.49999983  0.50000000
   0.00000010  0.49999983  0.57345060
   0.50000017  0.99999990  0.50000000
   0.50000017  0.49999983  0.57345060
   0.00000010  0.49999983  0.64690120
   0.50000017  0.99999990  0.57345060
   0.50000017  0.49999983  0.64690120
   0.00000010  0.49999983  0.72035180
   0.50000017  0.99999990  0.64690120
   0.50000017  0.49999983  0.35309880
   0.50000017  0.49999983  0.42654940
   0.50000017  0.49999983  0.50000000
   0.50000017  0.49999983  0.57345060
   0.50000017  0.49999983  0.64690120
   0.50000017  0.49999983  0.72035180
   0.00000010  0.99999990  0.35309878
   0.00000010  0.99999990  0.42654938
   0.00000010  0.99999990  0.49999998
   0.00000010  0.99999990  0.57345058
   0.00000010  0.99999990  0.64690118
   0.00000010  0.99999990  0.72035178
