   96   96  800    1
  0.3521057E+02  0.1985433E-08  0.2080761E-08  0.2734540E-08  0.5000000E-15
  1.000000000000000E-004
  CAR 
 unknown system                          
    384     10    248
