       N       E                     dE             d eps       ncg     rms          rms(c)
DAV:   1     0.235880601567E+04    0.23588E+04   -0.11961E+05  5088   0.973E+02
DAV:   2    -0.348926908972E+02   -0.23937E+04   -0.23080E+04  6776   0.206E+02
DAV:   3    -0.414017690801E+03   -0.37912E+03   -0.37632E+03  5976   0.866E+01
DAV:   4    -0.429598655053E+03   -0.15581E+02   -0.15490E+02  6016   0.205E+01
DAV:   5    -0.430243173947E+03   -0.64452E+00   -0.64350E+00  6696   0.391E+00    0.516E+01
RMM:   6    -0.433902962053E+03   -0.36598E+01   -0.44398E+01  5056   0.693E+00    0.505E+01
RMM:   7    -0.431023604023E+03    0.28794E+01   -0.31417E+01  5005   0.566E+00    0.332E+01
RMM:   8    -0.424968164320E+03    0.60554E+01   -0.17589E+01  5002   0.504E+00    0.118E+01
RMM:   9    -0.420328798174E+03    0.46394E+01   -0.28791E+00  5000   0.252E+00    0.944E+00
RMM:  10    -0.410260389256E+03    0.10068E+02   -0.10013E+01  5217   0.301E+00    0.547E+00
RMM:  11    -0.408309379322E+03    0.19510E+01   -0.13441E+00  5213   0.142E+00    0.519E+00
RMM:  12    -0.413111286023E+03   -0.48019E+01   -0.53987E+00  5448   0.143E+00    0.149E+01
RMM:  13    -0.408970473480E+03    0.41408E+01   -0.32892E-01  5080   0.730E-01    0.627E+00
RMM:  14    -0.409107430955E+03   -0.13696E+00   -0.12597E-01  6458   0.365E-01    0.633E+00
RMM:  15    -0.409021933165E+03    0.85498E-01   -0.17194E-02  5957   0.111E-01    0.634E+00
RMM:  16    -0.408513715925E+03    0.50822E+00   -0.27210E-02  5036   0.157E-01    0.616E+00
RMM:  17    -0.408395929748E+03    0.11779E+00   -0.30490E-02  5243   0.154E-01    0.680E+00
RMM:  18    -0.407770099684E+03    0.62583E+00   -0.19450E-01  6910   0.352E-01    0.621E+00
RMM:  19    -0.407964328421E+03   -0.19423E+00   -0.10105E-01  6409   0.252E-01    0.701E+00
RMM:  20    -0.408097433627E+03   -0.13311E+00   -0.17680E-01  7077   0.347E-01    0.613E+00
RMM:  21    -0.409008765333E+03   -0.91133E+00   -0.39616E-01  7519   0.416E-01    0.118E+01
RMM:  22    -0.408505726235E+03    0.50304E+00   -0.53105E-02  5120   0.124E-01    0.922E+00
RMM:  23    -0.408013876753E+03    0.49185E+00   -0.46028E-02  6296   0.162E-01    0.758E+00
RMM:  24    -0.407470985458E+03    0.54289E+00   -0.72332E-02  6723   0.181E-01    0.770E+00
RMM:  25    -0.406822931001E+03    0.64805E+00   -0.95576E-02  7323   0.222E-01    0.518E+00
RMM:  26    -0.406800525384E+03    0.22406E-01   -0.24984E-02  6311   0.146E-01    0.409E+00
RMM:  27    -0.406758742023E+03    0.41783E-01   -0.11672E-02  5871   0.103E-01    0.390E+00
RMM:  28    -0.406779876234E+03   -0.21134E-01   -0.23790E-02  6681   0.140E-01    0.304E+00
RMM:  29    -0.406684805171E+03    0.95071E-01   -0.92566E-02  7230   0.229E-01    0.284E+00
RMM:  30    -0.406657113438E+03    0.27692E-01   -0.87649E-03  5589   0.787E-02    0.190E+00
RMM:  31    -0.406644126269E+03    0.12987E-01   -0.18980E-02  6711   0.124E-01    0.118E+00
RMM:  32    -0.406633058529E+03    0.11068E-01   -0.85879E-03  6101   0.779E-02    0.943E-01
RMM:  33    -0.406616417554E+03    0.16641E-01   -0.69510E-03  6030   0.690E-02    0.509E-01
RMM:  34    -0.406615975793E+03    0.44176E-03   -0.32526E-03  5809   0.501E-02    0.339E-01
RMM:  35    -0.406614670649E+03    0.13051E-02   -0.87288E-04  5593   0.283E-02    0.221E-01
RMM:  36    -0.406614179045E+03    0.49160E-03   -0.44872E-04  5479   0.189E-02    0.133E-01
RMM:  37    -0.406614227956E+03   -0.48911E-04   -0.73696E-04  5742   0.248E-02    0.754E-02
RMM:  38    -0.406614964393E+03   -0.73644E-03   -0.29196E-04  5333   0.160E-02    0.164E-01
RMM:  39    -0.406614495930E+03    0.46846E-03   -0.10098E-04  5060   0.100E-02    0.730E-02
RMM:  40    -0.406614458044E+03    0.37886E-04   -0.19000E-04  5542   0.112E-02    0.395E-02
RMM:  41    -0.406614511328E+03   -0.53284E-04   -0.24673E-05  5010   0.562E-03    0.398E-02
RMM:  42    -0.406614592102E+03   -0.80775E-04   -0.33613E-05  5262   0.534E-03    0.361E-02
RMM:  43    -0.406614600426E+03   -0.83240E-05   -0.11240E-05  5016   0.357E-03    0.125E-02
RMM:  44    -0.406614657458E+03   -0.57032E-04   -0.10218E-05  5112   0.296E-03    0.270E-02
RMM:  45    -0.406614691520E+03   -0.34062E-04   -0.69362E-06  5427   0.218E-03    0.331E-02
RMM:  46    -0.406614692682E+03   -0.11619E-05   -0.42456E-06  5166   0.165E-03    0.105E-02
RMM:  47    -0.406614707703E+03   -0.15021E-04   -0.14206E-06  4993   0.104E-03    0.746E-03
RMM:  48    -0.406614719810E+03   -0.12107E-04   -0.97118E-07  4906   0.773E-04    0.865E-03
RMM:  49    -0.406614724384E+03   -0.45735E-05   -0.45380E-07  5086   0.578E-04    0.102E-02
RMM:  50    -0.406614725808E+03   -0.14239E-05   -0.42073E-07  4900   0.516E-04    0.350E-03
RMM:  51    -0.406614727618E+03   -0.18107E-05   -0.24073E-07  4705   0.390E-04    0.434E-03
RMM:  52    -0.406614727979E+03   -0.36077E-06   -0.11929E-07  4436   0.281E-04    0.243E-03
RMM:  53    -0.406614728029E+03   -0.49975E-07   -0.36231E-08  3539   0.199E-04    0.188E-03
RMM:  54    -0.406614727989E+03    0.39814E-07   -0.10867E-07  4328   0.270E-04    0.105E-03
RMM:  55    -0.406614728029E+03   -0.39985E-07   -0.10187E-08  2727   0.119E-04    0.663E-04
RMM:  56    -0.406614728034E+03   -0.52241E-08   -0.44094E-09  2588   0.802E-05
   1 F= -.40661473E+03 E0= -.40657857E+03  d E =-.406615E+03
       N       E                     dE             d eps       ncg     rms          rms(c)
DAV:   1    -0.406816487270E+03   -0.20176E+00   -0.42738E+01  5536   0.982E+00    0.885E+00
RMM:   2    -0.417650453724E+03   -0.10834E+02   -0.47906E+00  5115   0.325E+00    0.207E+01
RMM:   3    -0.408010083430E+03    0.96404E+01   -0.13716E+00  4974   0.173E+00    0.440E+00
RMM:   4    -0.407566692851E+03    0.44339E+00   -0.25700E-01  5162   0.804E-01    0.421E+00
RMM:   5    -0.407651941758E+03   -0.85249E-01   -0.16953E-01  5117   0.464E-01    0.409E+00
RMM:   6    -0.407216538824E+03    0.43540E+00   -0.10457E-01  5008   0.400E-01    0.218E+00
RMM:   7    -0.407129628713E+03    0.86910E-01   -0.20499E-02  4990   0.207E-01    0.965E-01
RMM:   8    -0.407141849597E+03   -0.12221E-01   -0.14408E-02  5282   0.134E-01    0.134E+00
RMM:   9    -0.407127604444E+03    0.14245E-01   -0.59575E-03  5749   0.822E-02    0.782E-01
RMM:  10    -0.407125046663E+03    0.25578E-02   -0.16848E-03  5826   0.408E-02    0.718E-01
RMM:  11    -0.407121980253E+03    0.30664E-02   -0.92334E-04  5080   0.288E-02    0.617E-01
RMM:  12    -0.407119345652E+03    0.26346E-02   -0.24127E-03  5628   0.480E-02    0.452E-01
RMM:  13    -0.407118435743E+03    0.90991E-03   -0.50447E-04  5451   0.253E-02    0.405E-01
RMM:  14    -0.407116318770E+03    0.21170E-02   -0.61041E-04  5506   0.227E-02    0.292E-01
RMM:  15    -0.407115442496E+03    0.87627E-03   -0.25598E-04  5366   0.153E-02    0.234E-01
RMM:  16    -0.407114819190E+03    0.62331E-03   -0.18874E-04  5886   0.123E-02    0.182E-01
RMM:  17    -0.407113999464E+03    0.81973E-03   -0.67193E-04  6417   0.213E-02    0.618E-02
RMM:  18    -0.407113919997E+03    0.79467E-04   -0.73748E-05  5720   0.804E-03    0.208E-02
RMM:  19    -0.407113935079E+03   -0.15082E-04   -0.12256E-05  5879   0.379E-03    0.189E-02
RMM:  20    -0.407113939241E+03   -0.41618E-05   -0.11270E-05  5203   0.323E-03    0.716E-03
RMM:  21    -0.407113947515E+03   -0.82736E-05   -0.90658E-06  5320   0.268E-03    0.796E-03
RMM:  22    -0.407113952339E+03   -0.48242E-05   -0.27553E-06  4880   0.185E-03    0.226E-03
RMM:  23    -0.407113956791E+03   -0.44522E-05   -0.90826E-07  4759   0.898E-04    0.149E-03
RMM:  24    -0.407113958825E+03   -0.20337E-05   -0.75844E-07  4654   0.722E-04    0.235E-03
RMM:  25    -0.407113959884E+03   -0.10586E-05   -0.22235E-07  4347   0.384E-04    0.197E-03
RMM:  26    -0.407113960203E+03   -0.31977E-06   -0.90960E-08  3530   0.224E-04    0.952E-04
RMM:  27    -0.407113960243E+03   -0.39639E-07   -0.25171E-08  2852   0.129E-04    0.659E-04
RMM:  28    -0.407113960319E+03   -0.75575E-07   -0.30435E-08  2928   0.132E-04    0.156E-04
RMM:  29    -0.407113960332E+03   -0.13457E-07   -0.88301E-09  2581   0.940E-05    0.781E-05
RMM:  30    -0.407113960347E+03   -0.14952E-07   -0.54635E-09  2465   0.737E-05    0.481E-05
RMM:  31    -0.407113960349E+03   -0.19718E-08   -0.15405E-09  1860   0.512E-05
   2 F= -.40711396E+03 E0= -.40707988E+03  d E =-.499232E+00
       N       E                     dE             d eps       ncg     rms          rms(c)
DAV:   1    -0.407113963177E+03   -0.28299E-05   -0.59566E-04  5424   0.366E-02    0.320E-02
RMM:   2    -0.407114305441E+03   -0.34226E-03   -0.86151E-05  5197   0.126E-02    0.129E-01
RMM:   3    -0.407114003296E+03    0.30215E-03   -0.26519E-05  4960   0.698E-03    0.435E-02
RMM:   4    -0.407113967522E+03    0.35774E-04   -0.33640E-06  5140   0.320E-03    0.750E-03
RMM:   5    -0.407113967904E+03   -0.38179E-06   -0.20425E-06  5175   0.174E-03    0.776E-03
RMM:   6    -0.407113968211E+03   -0.30700E-06   -0.67914E-07  5425   0.992E-04    0.996E-03
RMM:   7    -0.407113966842E+03    0.13690E-05   -0.20189E-07  4135   0.522E-04    0.137E-03
RMM:   8    -0.407113966834E+03    0.81163E-08   -0.63309E-08  3857   0.310E-04
   3 F= -.40711397E+03 E0= -.40707988E+03  d E =-.499239E+00
       N       E                     dE             d eps       ncg     rms          rms(c)
DAV:   1    -0.407339045325E+03   -0.22508E+00   -0.12794E+01  5304   0.512E+00    0.309E+00
RMM:   2    -0.407561695173E+03   -0.22265E+00   -0.80740E-01  4984   0.156E+00    0.321E+00
RMM:   3    -0.408892772020E+03   -0.13311E+01   -0.35033E-01  4980   0.839E-01    0.396E+00
RMM:   4    -0.407736006386E+03    0.11568E+01   -0.75060E-02  5050   0.417E-01    0.308E+00
RMM:   5    -0.407426103642E+03    0.30990E+00   -0.64664E-02  5083   0.262E-01    0.116E+00
RMM:   6    -0.407483759594E+03   -0.57656E-01   -0.78287E-03  5201   0.144E-01    0.206E+00
RMM:   7    -0.407535843566E+03   -0.52084E-01   -0.61376E-03  5032   0.871E-02    0.243E+00
RMM:   8    -0.407446405857E+03    0.89438E-01   -0.15995E-02  5684   0.108E-01    0.149E+00
RMM:   9    -0.407475396519E+03   -0.28991E-01   -0.15522E-02  5973   0.110E-01    0.201E+00
RMM:  10    -0.407475680032E+03   -0.28351E-03   -0.25647E-03  5461   0.580E-02    0.197E+00
RMM:  11    -0.407440507909E+03    0.35172E-01   -0.31495E-03  5481   0.545E-02    0.128E+00
RMM:  12    -0.407424742859E+03    0.15765E-01   -0.40105E-03  5817   0.521E-02    0.755E-01
RMM:  13    -0.407433356075E+03   -0.86132E-02   -0.20020E-03  5665   0.392E-02    0.100E+00
RMM:  14    -0.407422044334E+03    0.11312E-01   -0.47147E-04  5164   0.249E-02    0.557E-01
RMM:  15    -0.407417566469E+03    0.44779E-02   -0.40032E-04  5338   0.207E-02    0.182E-01
RMM:  16    -0.407417800852E+03   -0.23438E-03   -0.97535E-05  5813   0.126E-02    0.199E-01
RMM:  17    -0.407417485744E+03    0.31511E-03   -0.19645E-05  5473   0.553E-03    0.140E-01
RMM:  18    -0.407417217271E+03    0.26847E-03   -0.23919E-05  5126   0.473E-03    0.552E-02
RMM:  19    -0.407417196271E+03    0.21000E-04   -0.22253E-05  5793   0.441E-03    0.267E-02
RMM:  20    -0.407417210115E+03   -0.13844E-04   -0.80200E-06  5685   0.272E-03    0.312E-02
RMM:  21    -0.407417203775E+03    0.63398E-05   -0.52287E-06  5467   0.205E-03    0.714E-03
RMM:  22    -0.407417206765E+03   -0.29898E-05   -0.10191E-06  5967   0.103E-03    0.580E-03
RMM:  23    -0.407417208125E+03   -0.13601E-05   -0.12804E-07  4398   0.412E-04    0.677E-03
RMM:  24    -0.407417210002E+03   -0.18768E-05   -0.16295E-07  4329   0.364E-04    0.485E-03
RMM:  25    -0.407417212267E+03   -0.22653E-05   -0.52913E-07  5238   0.559E-04    0.259E-03
RMM:  26    -0.407417213053E+03   -0.78568E-06   -0.83772E-08  3957   0.251E-04    0.430E-03
RMM:  27    -0.407417213148E+03   -0.95144E-07   -0.59444E-08  3682   0.219E-04    0.427E-04
RMM:  28    -0.407417213309E+03   -0.16119E-06   -0.17295E-08  2774   0.116E-04    0.523E-04
RMM:  29    -0.407417213414E+03   -0.10506E-06   -0.13635E-08  2979   0.102E-04    0.979E-04
RMM:  30    -0.407417213432E+03   -0.17310E-07   -0.82970E-09  2583   0.782E-05    0.794E-05
RMM:  31    -0.407417213441E+03   -0.93496E-08   -0.28371E-09  1909   0.541E-05
   4 F= -.40741721E+03 E0= -.40738217E+03  d E =-.303247E+00
       N       E                     dE             d eps       ncg     rms          rms(c)
DAV:   1    -0.407333200877E+03    0.84013E-01   -0.65052E+01  5024   0.116E+01    0.842E+00
RMM:   2    -0.408878559643E+03   -0.15454E+01   -0.39069E+00  4970   0.352E+00    0.444E+00
RMM:   3    -0.422956623459E+03   -0.14078E+02   -0.33794E+00  5034   0.213E+00    0.211E+01
RMM:   4    -0.407798968238E+03    0.15158E+02   -0.10736E+00  5044   0.135E+00    0.368E+00
RMM:   5    -0.407748131220E+03    0.50837E-01   -0.15397E-01  5201   0.570E-01    0.295E+00
RMM:   6    -0.407758691349E+03   -0.10560E-01   -0.82542E-02  5165   0.332E-01    0.276E+00
RMM:   7    -0.407944894739E+03   -0.18620E+00   -0.55809E-02  5097   0.268E-01    0.548E+00
RMM:   8    -0.408059720388E+03   -0.11483E+00   -0.36093E-02  5290   0.209E-01    0.591E+00
RMM:   9    -0.407786861788E+03    0.27286E+00   -0.10702E-02  5322   0.126E-01    0.260E+00
RMM:  10    -0.407790397817E+03   -0.35360E-02   -0.22304E-02  5462   0.114E-01    0.321E+00
RMM:  11    -0.407733710606E+03    0.56687E-01   -0.14668E-02  5661   0.987E-02    0.930E-01
RMM:  12    -0.407733484100E+03    0.22651E-03   -0.64575E-03  5426   0.783E-02    0.134E+00
RMM:  13    -0.407719995616E+03    0.13488E-01   -0.31696E-03  5334   0.533E-02    0.378E-01
RMM:  14    -0.407722764297E+03   -0.27687E-02   -0.99796E-04  5095   0.368E-02    0.731E-01
RMM:  15    -0.407718608219E+03    0.41561E-02   -0.92034E-04  5252   0.363E-02    0.124E-01
RMM:  16    -0.407718640120E+03   -0.31901E-04   -0.81953E-04  5531   0.326E-02    0.732E-02
RMM:  17    -0.407718711799E+03   -0.71678E-04   -0.16668E-04  6116   0.167E-02    0.712E-02
RMM:  18    -0.407718714421E+03   -0.26228E-05   -0.28754E-05  5077   0.695E-03    0.241E-02
RMM:  19    -0.407718763582E+03   -0.49161E-04   -0.20599E-05  5120   0.483E-03    0.162E-02
RMM:  20    -0.407718783388E+03   -0.19806E-04   -0.57646E-06  5388   0.264E-03    0.141E-02
RMM:  21    -0.407718810437E+03   -0.27049E-04   -0.69430E-06  5173   0.229E-03    0.139E-02
RMM:  22    -0.407718835199E+03   -0.24762E-04   -0.44193E-06  5015   0.164E-03    0.106E-02
RMM:  23    -0.407718851864E+03   -0.16665E-04   -0.26725E-06  4994   0.122E-03    0.120E-02
RMM:  24    -0.407718858640E+03   -0.67758E-05   -0.16572E-06  5018   0.930E-04    0.278E-03
RMM:  25    -0.407718860310E+03   -0.16695E-05   -0.44285E-07  5172   0.553E-04    0.124E-03
RMM:  26    -0.407718861360E+03   -0.10503E-05   -0.13891E-07  4144   0.304E-04    0.226E-03
RMM:  27    -0.407718862474E+03   -0.11145E-05   -0.92553E-08  3620   0.221E-04    0.159E-03
RMM:  28    -0.407718863358E+03   -0.88304E-06   -0.92745E-08  3559   0.197E-04    0.880E-04
RMM:  29    -0.407718863861E+03   -0.50323E-06   -0.27082E-08  2898   0.129E-04    0.403E-04
RMM:  30    -0.407718864230E+03   -0.36929E-06   -0.21987E-08  2726   0.995E-05    0.311E-04
RMM:  31    -0.407718864417E+03   -0.18703E-06   -0.88782E-09  2672   0.808E-05    0.165E-04
RMM:  32    -0.407718864568E+03   -0.15056E-06   -0.79012E-09  2310   0.658E-05    0.132E-04
RMM:  33    -0.407718864621E+03   -0.53558E-07   -0.30207E-09  1876   0.525E-05    0.101E-04
RMM:  34    -0.407718864650E+03   -0.29158E-07   -0.28025E-09  1918   0.522E-05    0.133E-04
RMM:  35    -0.407718864656E+03   -0.59808E-08   -0.62563E-10  1301   0.404E-05
   5 F= -.40771886E+03 E0= -.40768111E+03  d E =-.604898E+00
       N       E                     dE             d eps       ncg     rms          rms(c)
DAV:   1    -0.407855583515E+03   -0.13672E+00   -0.20317E+01  5008   0.671E+00    0.464E+00
RMM:   2    -0.414618584680E+03   -0.67630E+01   -0.19891E+00  5049   0.221E+00    0.203E+01
RMM:   3    -0.407979343668E+03    0.66392E+01   -0.38218E-01  4964   0.108E+00    0.135E+00
RMM:   4    -0.407984286198E+03   -0.49425E-02   -0.75156E-02  5286   0.489E-01    0.143E+00
RMM:   5    -0.407994314805E+03   -0.10029E-01   -0.30599E-02  5126   0.244E-01    0.157E+00
RMM:   6    -0.408012377393E+03   -0.18063E-01   -0.24200E-02  5369   0.174E-01    0.182E+00
RMM:   7    -0.407970374650E+03    0.42003E-01   -0.12661E-02  5133   0.126E-01    0.693E-01
RMM:   8    -0.407976630498E+03   -0.62558E-02   -0.62500E-03  5583   0.805E-02    0.103E+00
RMM:   9    -0.407965919474E+03    0.10711E-01   -0.27001E-03  5166   0.502E-02    0.261E-01
RMM:  10    -0.407965569921E+03    0.34955E-03   -0.67711E-04  5049   0.325E-02    0.144E-01
RMM:  11    -0.407965441272E+03    0.12865E-03   -0.52147E-04  5276   0.251E-02    0.107E-01
RMM:  12    -0.407965340504E+03    0.10077E-03   -0.19828E-04  5920   0.152E-02    0.637E-02
RMM:  13    -0.407965321012E+03    0.19492E-04   -0.69740E-05  5326   0.803E-03    0.479E-02
RMM:  14    -0.407965320738E+03    0.27347E-06   -0.91059E-05  5396   0.873E-03    0.340E-02
RMM:  15    -0.407965318189E+03    0.25496E-05   -0.16905E-05  5934   0.436E-03    0.869E-03
RMM:  16    -0.407965329009E+03   -0.10821E-04   -0.34244E-06  5178   0.213E-03    0.156E-02
RMM:  17    -0.407965338017E+03   -0.90078E-05   -0.52418E-06  5128   0.205E-03    0.506E-03
RMM:  18    -0.407965342620E+03   -0.46035E-05   -0.15610E-06  5649   0.115E-03    0.666E-03
RMM:  19    -0.407965349687E+03   -0.70665E-05   -0.84772E-07  4727   0.790E-04    0.180E-03
RMM:  20    -0.407965355611E+03   -0.59241E-05   -0.64825E-07  4687   0.590E-04    0.245E-03
RMM:  21    -0.407965358354E+03   -0.27434E-05   -0.14428E-07  4235   0.316E-04    0.204E-03
RMM:  22    -0.407965363084E+03   -0.47293E-05   -0.25512E-07  4541   0.327E-04    0.804E-04
RMM:  23    -0.407965365082E+03   -0.19983E-05   -0.82984E-08  3534   0.187E-04    0.403E-04
RMM:  24    -0.407965366745E+03   -0.16630E-05   -0.80044E-08  3271   0.159E-04    0.488E-04
RMM:  25    -0.407965367573E+03   -0.82767E-06   -0.43401E-08  2855   0.114E-04    0.578E-04
RMM:  26    -0.407965367897E+03   -0.32458E-06   -0.15743E-08  2609   0.802E-05    0.435E-04
RMM:  27    -0.407965368099E+03   -0.20216E-06   -0.11647E-08  2338   0.679E-05    0.408E-04
RMM:  28    -0.407965368190E+03   -0.90757E-07   -0.67862E-09  2098   0.580E-05    0.297E-04
RMM:  29    -0.407965368212E+03   -0.22261E-07   -0.16831E-09  1661   0.460E-05    0.151E-04
RMM:  30    -0.407965368222E+03   -0.96079E-08   -0.10473E-09  1529   0.435E-05
   6 F= -.40796537E+03 E0= -.40792913E+03  d E =-.246504E+00
       N       E                     dE             d eps       ncg     rms          rms(c)
DAV:   1    -0.407968777380E+03   -0.34092E-02   -0.50885E+00  5072   0.337E+00    0.226E+00
RMM:   2    -0.409971611020E+03   -0.20028E+01   -0.51858E-01  5061   0.111E+00    0.116E+01
RMM:   3    -0.408009637603E+03    0.19620E+01   -0.10666E-01  4960   0.552E-01    0.105E+00
RMM:   4    -0.407998105188E+03    0.11532E-01   -0.21294E-02  5253   0.251E-01    0.513E-01
RMM:   5    -0.407997857799E+03    0.24739E-03   -0.55969E-03  5212   0.117E-01    0.517E-01
RMM:   6    -0.408002722487E+03   -0.48647E-02   -0.35121E-03  5458   0.699E-02    0.926E-01
RMM:   7    -0.407999132221E+03    0.35903E-02   -0.41466E-03  5268   0.676E-02    0.553E-01
RMM:   8    -0.408002937717E+03   -0.38055E-02   -0.22270E-03  5320   0.461E-02    0.862E-01
RMM:   9    -0.407996425053E+03    0.65127E-02   -0.10626E-03  5321   0.313E-02    0.104E-01
RMM:  10    -0.407996328517E+03    0.96536E-04   -0.31423E-04  5169   0.181E-02    0.778E-02
RMM:  11    -0.407996260849E+03    0.67668E-04   -0.18110E-04  5325   0.136E-02    0.306E-02
RMM:  12    -0.407996268721E+03   -0.78720E-05   -0.55620E-05  5910   0.850E-03    0.274E-02
RMM:  13    -0.407996271588E+03   -0.28668E-05   -0.10031E-05  5122   0.415E-03    0.102E-02
RMM:  14    -0.407996276354E+03   -0.47662E-05   -0.35604E-06  5245   0.250E-03    0.412E-03
RMM:  15    -0.407996280032E+03   -0.36784E-05   -0.11624E-06  5557   0.130E-03    0.277E-03
RMM:  16    -0.407996284641E+03   -0.46088E-05   -0.91790E-07  4922   0.830E-04    0.186E-03
RMM:  17    -0.407996288675E+03   -0.40338E-05   -0.54597E-07  4678   0.580E-04    0.855E-04
RMM:  18    -0.407996291202E+03   -0.25268E-05   -0.22995E-07  4428   0.384E-04    0.272E-03
RMM:  19    -0.407996294304E+03   -0.31025E-05   -0.25412E-07  4452   0.341E-04    0.148E-03
RMM:  20    -0.407996296547E+03   -0.22424E-05   -0.14403E-07  3888   0.228E-04    0.539E-04
RMM:  21    -0.407996297390E+03   -0.84296E-06   -0.35391E-08  3106   0.137E-04    0.330E-04
RMM:  22    -0.407996298227E+03   -0.83759E-06   -0.34179E-08  2979   0.128E-04    0.448E-04
RMM:  23    -0.407996298711E+03   -0.48367E-06   -0.19368E-08  2815   0.984E-05    0.266E-04
RMM:  24    -0.407996299123E+03   -0.41201E-06   -0.27111E-08  2871   0.915E-05    0.130E-04
RMM:  25    -0.407996299251E+03   -0.12784E-06   -0.95286E-09  2317   0.662E-05    0.312E-04
RMM:  26    -0.407996299291E+03   -0.40094E-07   -0.30090E-09  1792   0.497E-05    0.816E-05
RMM:  27    -0.407996299303E+03   -0.11809E-07   -0.13718E-09  1640   0.459E-05    0.988E-05
RMM:  28    -0.407996299305E+03   -0.23174E-08   -0.24210E-10  1221   0.390E-05
   7 F= -.40799630E+03 E0= -.40796097E+03  d E =-.277435E+00
       N       E                     dE             d eps       ncg     rms          rms(c)
DAV:   1    -0.408110328515E+03   -0.11403E+00   -0.95739E+00  4992   0.459E+00    0.262E+00
RMM:   2    -0.408817156203E+03   -0.70683E+00   -0.65214E-01  4980   0.142E+00    0.837E+00
RMM:   3    -0.408219401558E+03    0.59775E+00   -0.12288E-01  5048   0.654E-01    0.174E+00
RMM:   4    -0.408177799613E+03    0.41602E-01   -0.25999E-02  5257   0.303E-01    0.107E+00
RMM:   5    -0.408176579783E+03    0.12198E-02   -0.85175E-03  5674   0.146E-01    0.113E+00
RMM:   6    -0.408168165180E+03    0.84146E-02   -0.26474E-03  4967   0.712E-02    0.698E-01
RMM:   7    -0.408176462710E+03   -0.82975E-02   -0.54602E-03  5279   0.681E-02    0.108E+00
RMM:   8    -0.408168692465E+03    0.77702E-02   -0.50534E-03  5459   0.707E-02    0.556E-01
RMM:   9    -0.408169945905E+03   -0.12534E-02   -0.28838E-03  5247   0.623E-02    0.698E-01
RMM:  10    -0.408165812380E+03    0.41335E-02   -0.75030E-04  5216   0.359E-02    0.152E-01
RMM:  11    -0.408166415466E+03   -0.60309E-03   -0.25455E-04  5159   0.203E-02    0.313E-01
RMM:  12    -0.408165665440E+03    0.75003E-03   -0.14501E-04  5268   0.137E-02    0.121E-01
RMM:  13    -0.408165867351E+03   -0.20191E-03   -0.74320E-05  5238   0.108E-02    0.179E-01
RMM:  14    -0.408165600420E+03    0.26693E-03   -0.52213E-05  5434   0.874E-03    0.194E-02
RMM:  15    -0.408165615875E+03   -0.15455E-04   -0.11595E-05  5757   0.464E-03    0.260E-02
RMM:  16    -0.408165626885E+03   -0.11010E-04   -0.39725E-06  5120   0.239E-03    0.116E-02
RMM:  17    -0.408165635176E+03   -0.82908E-05   -0.28389E-06  5252   0.177E-03    0.498E-03
RMM:  18    -0.408165640727E+03   -0.55506E-05   -0.14630E-06  5405   0.122E-03    0.338E-03
RMM:  19    -0.408165644536E+03   -0.38090E-05   -0.60985E-07  4927   0.738E-04    0.270E-03
RMM:  20    -0.408165648159E+03   -0.36233E-05   -0.76603E-07  4999   0.738E-04    0.156E-03
RMM:  21    -0.408165649282E+03   -0.11229E-05   -0.26384E-07  4627   0.476E-04    0.516E-04
RMM:  22    -0.408165649806E+03   -0.52413E-06   -0.12307E-07  4505   0.352E-04    0.485E-04
RMM:  23    -0.408165649976E+03   -0.17008E-06   -0.31434E-08  3429   0.193E-04    0.274E-04
RMM:  24    -0.408165649995E+03   -0.18907E-07   -0.52382E-09  2736   0.106E-04    0.193E-04
RMM:  25    -0.408165650025E+03   -0.30239E-07   -0.29998E-09  2597   0.727E-05    0.186E-04
RMM:  26    -0.408165650036E+03   -0.10587E-07   -0.10085E-09  1769   0.494E-05    0.122E-04
RMM:  27    -0.408165650043E+03   -0.68576E-08   -0.74847E-10  1645   0.457E-05
   8 F= -.40816565E+03 E0= -.40813083E+03  d E =-.169351E+00
       N       E                     dE             d eps       ncg     rms          rms(c)
DAV:   1    -0.408150853849E+03    0.14796E-01   -0.17203E+01  4960   0.616E+00    0.356E+00
RMM:   2    -0.408286022800E+03   -0.13517E+00   -0.10557E+00  4964   0.188E+00    0.310E+00
RMM:   3    -0.409738245871E+03   -0.14522E+01   -0.53544E-01  5051   0.100E+00    0.504E+00
RMM:   4    -0.408499354776E+03    0.12389E+01   -0.14516E-01  5072   0.522E-01    0.298E+00
RMM:   5    -0.408409940961E+03    0.89414E-01   -0.49206E-02  5389   0.270E-01    0.290E+00
RMM:   6    -0.408344533925E+03    0.65407E-01   -0.18408E-02  5822   0.143E-01    0.234E+00
RMM:   7    -0.408261912527E+03    0.82621E-01   -0.16533E-02  5185   0.103E-01    0.115E+00
RMM:   8    -0.408258685542E+03    0.32270E-02   -0.46283E-03  5583   0.686E-02    0.102E+00
RMM:   9    -0.408314913515E+03   -0.56228E-01   -0.24846E-02  5944   0.122E-01    0.263E+00
RMM:  10    -0.408343873144E+03   -0.28960E-01   -0.93847E-03  5743   0.102E-01    0.434E+00
RMM:  11    -0.408278447446E+03    0.65426E-01   -0.26018E-03  5094   0.621E-02    0.218E+00
RMM:  12    -0.408268996132E+03    0.94513E-02   -0.10336E-02  6345   0.818E-02    0.102E+00
RMM:  13    -0.408258567158E+03    0.10429E-01   -0.49130E-03  5802   0.614E-02    0.943E-01
RMM:  14    -0.408254142294E+03    0.44249E-02   -0.43697E-04  5107   0.290E-02    0.465E-01
RMM:  15    -0.408256141143E+03   -0.19988E-02   -0.27966E-03  5912   0.450E-02    0.488E-01
RMM:  16    -0.408253464225E+03    0.26769E-02   -0.39318E-04  5239   0.235E-02    0.255E-01
RMM:  17    -0.408253133228E+03    0.33100E-03   -0.39684E-04  5499   0.208E-02    0.237E-01
RMM:  18    -0.408252933117E+03    0.20011E-03   -0.21418E-04  5664   0.155E-02    0.226E-01
RMM:  19    -0.408252444071E+03    0.48905E-03   -0.96150E-05  6007   0.910E-03    0.867E-02
RMM:  20    -0.408252373486E+03    0.70585E-04   -0.45794E-05  5637   0.563E-03    0.352E-02
RMM:  21    -0.408252415052E+03   -0.41566E-04   -0.90439E-06  5515   0.299E-03    0.681E-02
RMM:  22    -0.408252425449E+03   -0.10397E-04   -0.20155E-06  5283   0.164E-03    0.709E-02
RMM:  23    -0.408252403571E+03    0.21877E-04   -0.37820E-06  5266   0.184E-03    0.482E-02
RMM:  24    -0.408252384002E+03    0.19569E-04   -0.36195E-06  5379   0.161E-03    0.169E-02
RMM:  25    -0.408252383926E+03    0.75648E-07   -0.22047E-06  5651   0.122E-03    0.788E-03
RMM:  26    -0.408252386072E+03   -0.21453E-05   -0.12453E-06  5225   0.912E-04    0.281E-03
RMM:  27    -0.408252387978E+03   -0.19064E-05   -0.32904E-07  5006   0.506E-04    0.536E-03
RMM:  28    -0.408252388970E+03   -0.99233E-06   -0.64721E-08  3843   0.273E-04    0.279E-03
RMM:  29    -0.408252390603E+03   -0.16326E-05   -0.21424E-07  4521   0.362E-04    0.182E-03
RMM:  30    -0.408252391068E+03   -0.46468E-06   -0.30274E-08  3193   0.168E-04    0.908E-04
RMM:  31    -0.408252391731E+03   -0.66315E-06   -0.54172E-08  3446   0.175E-04    0.114E-03
RMM:  32    -0.408252391914E+03   -0.18276E-06   -0.10462E-08  2723   0.102E-04    0.581E-04
RMM:  33    -0.408252391983E+03   -0.68925E-07   -0.62692E-09  2445   0.749E-05    0.323E-04
RMM:  34    -0.408252392013E+03   -0.30515E-07   -0.35027E-09  2134   0.616E-05    0.278E-04
RMM:  35    -0.408252392020E+03   -0.67994E-08   -0.98589E-10  1494   0.461E-05
   9 F= -.40825239E+03 E0= -.40821866E+03  d E =-.256093E+00
       N       E                     dE             d eps       ncg     rms          rms(c)
DAV:   1    -0.408320379161E+03   -0.67987E-01   -0.52899E+00  5008   0.351E+00    0.237E+00
RMM:   2    -0.408697001712E+03   -0.37662E+00   -0.37276E-01  4971   0.108E+00    0.766E+00
RMM:   3    -0.408406566558E+03    0.29044E+00   -0.87177E-02  5040   0.520E-01    0.172E+00
RMM:   4    -0.408396262702E+03    0.10304E-01   -0.23224E-02  5283   0.251E-01    0.178E+00
RMM:   5    -0.408388435713E+03    0.78270E-02   -0.76005E-03  5765   0.126E-01    0.142E+00
RMM:   6    -0.408379338927E+03    0.90968E-02   -0.53581E-03  5097   0.765E-02    0.140E+00
RMM:   7    -0.408361810621E+03    0.17528E-01   -0.36970E-03  5146   0.594E-02    0.903E-01
RMM:   8    -0.408357789913E+03    0.40207E-02   -0.54754E-03  5726   0.684E-02    0.882E-01
RMM:   9    -0.408354617548E+03    0.31724E-02   -0.82953E-04  5089   0.367E-02    0.539E-01
RMM:  10    -0.408355797163E+03   -0.11796E-02   -0.67747E-04  5254   0.285E-02    0.670E-01
RMM:  11    -0.408352988690E+03    0.28085E-02   -0.57221E-04  5366   0.246E-02    0.156E-01
RMM:  12    -0.408352859701E+03    0.12899E-03   -0.21332E-04  5130   0.162E-02    0.137E-01
RMM:  13    -0.408352758137E+03    0.10156E-03   -0.68122E-05  5329   0.897E-03    0.483E-02
RMM:  14    -0.408352759097E+03   -0.96007E-06   -0.24338E-05  5192   0.598E-03    0.333E-02
RMM:  15    -0.408352776087E+03   -0.16989E-04   -0.12425E-05  5073   0.450E-03    0.427E-02
RMM:  16    -0.408352772031E+03    0.40557E-05   -0.52833E-06  5672   0.283E-03    0.210E-02
RMM:  17    -0.408352774182E+03   -0.21513E-05   -0.15615E-06  5274   0.142E-03    0.169E-02
RMM:  18    -0.408352777470E+03   -0.32875E-05   -0.30733E-06  5249   0.153E-03    0.401E-03
RMM:  19    -0.408352779003E+03   -0.15337E-05   -0.62303E-07  4803   0.751E-04    0.309E-03
RMM:  20    -0.408352779993E+03   -0.98922E-06   -0.40577E-07  4764   0.548E-04    0.389E-03
RMM:  21    -0.408352780335E+03   -0.34223E-06   -0.25282E-07  4575   0.401E-04    0.320E-03
RMM:  22    -0.408352780388E+03   -0.53122E-07   -0.67535E-08  3826   0.236E-04    0.132E-03
RMM:  23    -0.408352780478E+03   -0.90255E-07   -0.29274E-08  3298   0.166E-04    0.348E-04
RMM:  24    -0.408352780579E+03   -0.10066E-06   -0.11510E-08  2784   0.113E-04    0.387E-04
RMM:  25    -0.408352780687E+03   -0.10834E-06   -0.79456E-09  2585   0.798E-05    0.143E-04
RMM:  26    -0.408352780751E+03   -0.63650E-07   -0.33172E-09  2172   0.572E-05    0.645E-05
RMM:  27    -0.408352780808E+03   -0.57022E-07   -0.35371E-09  1882   0.507E-05    0.210E-04
RMM:  28    -0.408352780836E+03   -0.28667E-07   -0.15069E-09  1579   0.453E-05    0.752E-05
RMM:  29    -0.408352780851E+03   -0.14305E-07   -0.60494E-10  1330   0.414E-05    0.326E-05
RMM:  30    -0.408352780861E+03   -0.10066E-07   -0.94284E-10  1449   0.432E-05    0.547E-05
RMM:  31    -0.408352780863E+03   -0.17681E-08   -0.26648E-10  1237   0.401E-05
  10 F= -.40835278E+03 E0= -.40831996E+03  d E =-.100389E+00
       N       E                     dE             d eps       ncg     rms          rms(c)
DAV:   1    -0.408357375674E+03   -0.45948E-02   -0.28136E+00  5056   0.256E+00    0.170E+00
RMM:   2    -0.408430429451E+03   -0.73054E-01   -0.19036E-01  4962   0.785E-01    0.336E+00
RMM:   3    -0.408494395780E+03   -0.63966E-01   -0.61405E-02  5022   0.395E-01    0.278E+00
RMM:   4    -0.408431481967E+03    0.62914E-01   -0.21629E-02  5161   0.208E-01    0.204E+00
RMM:   5    -0.408409810812E+03    0.21671E-01   -0.73436E-03  5398   0.109E-01    0.139E+00
RMM:   6    -0.408400767382E+03    0.90434E-02   -0.38594E-03  5215   0.628E-02    0.132E+00
RMM:   7    -0.408385947676E+03    0.14820E-01   -0.18772E-03  5105   0.419E-02    0.101E+00
RMM:   8    -0.408398502898E+03   -0.12555E-01   -0.13191E-02  6536   0.913E-02    0.204E+00
RMM:   9    -0.408379849378E+03    0.18654E-01   -0.13205E-03  5075   0.454E-02    0.887E-01
RMM:  10    -0.408377362225E+03    0.24872E-02   -0.26359E-03  5725   0.425E-02    0.504E-01
RMM:  11    -0.408374922977E+03    0.24392E-02   -0.38016E-04  5018   0.228E-02    0.101E-01
RMM:  12    -0.408374910683E+03    0.12294E-04   -0.69021E-05  5102   0.114E-02    0.101E-01
RMM:  13    -0.408374837308E+03    0.73375E-04   -0.10955E-04  5119   0.115E-02    0.497E-02
RMM:  14    -0.408374831733E+03    0.55759E-05   -0.22650E-05  5956   0.680E-03    0.226E-02
RMM:  15    -0.408374832872E+03   -0.11394E-05   -0.34977E-06  5163   0.260E-03    0.952E-03
RMM:  16    -0.408374837241E+03   -0.43693E-05   -0.45033E-06  5031   0.245E-03    0.699E-03
RMM:  17    -0.408374840458E+03   -0.32169E-05   -0.15536E-06  5463   0.144E-03    0.401E-03
RMM:  18    -0.408374842795E+03   -0.23368E-05   -0.79382E-07  4964   0.929E-04    0.442E-03
RMM:  19    -0.408374843645E+03   -0.85065E-06   -0.38340E-07  5014   0.650E-04    0.168E-03
RMM:  20    -0.408374844503E+03   -0.85706E-06   -0.20225E-07  4476   0.451E-04    0.137E-03
RMM:  21    -0.408374845045E+03   -0.54292E-06   -0.18723E-07  4696   0.411E-04    0.270E-03
RMM:  22    -0.408374845287E+03   -0.24128E-06   -0.90272E-08  3931   0.269E-04    0.659E-04
RMM:  23    -0.408374845399E+03   -0.11243E-06   -0.46680E-08  3568   0.182E-04    0.226E-04
RMM:  24    -0.408374845439E+03   -0.40021E-07   -0.14944E-08  2893   0.122E-04    0.167E-04
RMM:  25    -0.408374845458E+03   -0.18426E-07   -0.71520E-09  2566   0.896E-05    0.222E-04
RMM:  26    -0.408374845460E+03   -0.20846E-08   -0.16881E-09  2166   0.590E-05
  11 F= -.40837485E+03 E0= -.40834272E+03  d E =-.122453E+00
       N       E                     dE             d eps       ncg     rms          rms(c)
DAV:   1    -0.408442446997E+03   -0.67602E-01   -0.40364E+00  4960   0.284E+00    0.178E+00
RMM:   2    -0.409125938826E+03   -0.68349E+00   -0.38780E-01  5097   0.922E-01    0.510E+00
RMM:   3    -0.408554125828E+03    0.57181E+00   -0.12637E-01  4977   0.490E-01    0.417E+00
RMM:   4    -0.408552561742E+03    0.15641E-02   -0.29386E-02  5107   0.253E-01    0.241E+00
RMM:   5    -0.408515043377E+03    0.37518E-01   -0.98581E-03  5224   0.131E-01    0.167E+00
RMM:   6    -0.408494155222E+03    0.20888E-01   -0.30421E-03  5142   0.666E-02    0.139E+00
RMM:   7    -0.408485763213E+03    0.83920E-02   -0.14315E-03  5396   0.391E-02    0.128E+00
RMM:   8    -0.408463412029E+03    0.22351E-01   -0.64873E-03  5919   0.635E-02    0.370E-01
RMM:   9    -0.408465063145E+03   -0.16511E-02   -0.15017E-03  5464   0.398E-02    0.609E-01
RMM:  10    -0.408463262149E+03    0.18010E-02   -0.10217E-03  5288   0.366E-02    0.239E-01
RMM:  11    -0.408465655308E+03   -0.23932E-02   -0.44354E-04  5252   0.257E-02    0.672E-01
RMM:  12    -0.408463418626E+03    0.22367E-02   -0.85114E-05  5084   0.138E-02    0.285E-01
RMM:  13    -0.408462923097E+03    0.49553E-03   -0.10477E-04  5045   0.111E-02    0.408E-02
RMM:  14    -0.408462945968E+03   -0.22871E-04   -0.61448E-05  5583   0.889E-03    0.557E-02
RMM:  15    -0.408462926554E+03    0.19414E-04   -0.98102E-06  5286   0.445E-03    0.237E-02
RMM:  16    -0.408462930322E+03   -0.37679E-05   -0.37387E-06  5424   0.235E-03    0.158E-02
RMM:  17    -0.408462933720E+03   -0.33980E-05   -0.28342E-06  5018   0.180E-03    0.553E-03
RMM:  18    -0.408462937123E+03   -0.34034E-05   -0.17386E-06  5146   0.129E-03    0.275E-03
RMM:  19    -0.408462938144E+03   -0.10204E-05   -0.38229E-07  5213   0.657E-04    0.341E-03
RMM:  20    -0.408462939795E+03   -0.16512E-05   -0.35640E-07  4594   0.518E-04    0.444E-03
RMM:  21    -0.408462941061E+03   -0.12662E-05   -0.52873E-07  4937   0.571E-04    0.197E-03
RMM:  22    -0.408462941437E+03   -0.37640E-06   -0.49686E-08  3777   0.240E-04    0.451E-04
RMM:  23    -0.408462941912E+03   -0.47503E-06   -0.57415E-08  3640   0.196E-04    0.751E-04
RMM:  24    -0.408462942194E+03   -0.28127E-06   -0.17829E-08  2869   0.120E-04    0.375E-04
RMM:  25    -0.408462942436E+03   -0.24239E-06   -0.15439E-08  2857   0.106E-04    0.761E-04
RMM:  26    -0.408462942535E+03   -0.98986E-07   -0.55171E-09  2503   0.717E-05    0.871E-05
RMM:  27    -0.408462942595E+03   -0.59699E-07   -0.33414E-09  1969   0.572E-05    0.419E-05
RMM:  28    -0.408462942617E+03   -0.21948E-07   -0.20707E-09  1690   0.509E-05    0.208E-04
RMM:  29    -0.408462942619E+03   -0.25648E-08   -0.55123E-10  1317   0.430E-05
  12 F= -.40846294E+03 E0= -.40843096E+03  d E =-.880972E-01
       N       E                     dE             d eps       ncg     rms          rms(c)
DAV:   1    -0.408426190426E+03    0.36752E-01   -0.36227E+01  4960   0.852E+00    0.662E+00
RMM:   2    -0.413293493410E+03   -0.48673E+01   -0.48588E+00  5040   0.300E+00    0.665E+00
RMM:   3    -0.408714518700E+03    0.45790E+01   -0.11469E+00  4966   0.154E+00    0.342E+00
RMM:   4    -0.410041402481E+03   -0.13269E+01   -0.72239E-01  5165   0.898E-01    0.125E+01
RMM:   5    -0.408626538255E+03    0.14149E+01   -0.13573E-01  4993   0.502E-01    0.241E+00
RMM:   6    -0.408874825571E+03   -0.24829E+00   -0.72311E-02  5117   0.291E-01    0.488E+00
RMM:   7    -0.408636154029E+03    0.23867E+00   -0.13027E-02  5061   0.146E-01    0.220E+00
RMM:   8    -0.408848228228E+03   -0.21207E+00   -0.24618E-02  5251   0.134E-01    0.481E+00
RMM:   9    -0.408591968047E+03    0.25626E+00   -0.35194E-02  5641   0.160E-01    0.122E+00
RMM:  10    -0.408621646558E+03   -0.29679E-01   -0.25921E-02  5662   0.158E-01    0.270E+00
RMM:  11    -0.408636742689E+03   -0.15096E-01   -0.48607E-03  5525   0.840E-02    0.326E+00
RMM:  12    -0.408618179141E+03    0.18564E-01   -0.16990E-03  5198   0.473E-02    0.252E+00
RMM:  13    -0.408611121249E+03    0.70579E-02   -0.37441E-03  5522   0.552E-02    0.219E+00
RMM:  14    -0.408593799444E+03    0.17322E-01   -0.92568E-04  5204   0.337E-02    0.120E+00
RMM:  15    -0.408587620187E+03    0.61793E-02   -0.33786E-03  6110   0.428E-02    0.621E-01
RMM:  16    -0.408584830255E+03    0.27899E-02   -0.28257E-04  5017   0.216E-02    0.201E-01
RMM:  17    -0.408585104144E+03   -0.27389E-03   -0.53386E-04  5335   0.216E-02    0.303E-01
RMM:  18    -0.408584772869E+03    0.33127E-03   -0.14390E-04  5009   0.159E-02    0.233E-01
RMM:  19    -0.408584979617E+03   -0.20675E-03   -0.84842E-05  5901   0.107E-02    0.292E-01
RMM:  20    -0.408584705657E+03    0.27396E-03   -0.15361E-05  5331   0.518E-03    0.218E-01
RMM:  21    -0.408584445418E+03    0.26024E-03   -0.48722E-05  5640   0.693E-03    0.947E-02
RMM:  22    -0.408584396164E+03    0.49254E-04   -0.57498E-05  6105   0.758E-03    0.188E-02
RMM:  23    -0.408584399209E+03   -0.30448E-05   -0.60714E-06  5850   0.288E-03    0.162E-02
RMM:  24    -0.408584412583E+03   -0.13374E-04   -0.29992E-06  5023   0.201E-03    0.398E-02
RMM:  25    -0.408584409193E+03    0.33904E-05   -0.48033E-06  5323   0.227E-03    0.195E-02
RMM:  26    -0.408584410238E+03   -0.10452E-05   -0.58388E-07  4744   0.111E-03    0.924E-03
RMM:  27    -0.408584412499E+03   -0.22607E-05   -0.45886E-07  4607   0.720E-04    0.223E-03
RMM:  28    -0.408584415516E+03   -0.30176E-05   -0.23751E-07  4576   0.465E-04    0.209E-03
RMM:  29    -0.408584418588E+03   -0.30718E-05   -0.25042E-07  4524   0.400E-04    0.122E-03
RMM:  30    -0.408584419781E+03   -0.11930E-05   -0.73881E-08  3891   0.227E-04    0.909E-04
RMM:  31    -0.408584420981E+03   -0.11998E-05   -0.86728E-08  3726   0.216E-04    0.760E-04
RMM:  32    -0.408584421475E+03   -0.49436E-06   -0.38089E-08  3253   0.158E-04    0.108E-03
RMM:  33    -0.408584421655E+03   -0.17970E-06   -0.15581E-08  2884   0.111E-04    0.600E-04
RMM:  34    -0.408584421686E+03   -0.31119E-07   -0.38936E-09  2539   0.704E-05    0.309E-04
RMM:  35    -0.408584421697E+03   -0.10506E-07   -0.23571E-09  1958   0.547E-05    0.592E-05
RMM:  36    -0.408584421698E+03   -0.13206E-08   -0.62837E-10  1472   0.448E-05
  13 F= -.40858442E+03 E0= -.40855180E+03  d E =-.209576E+00
       N       E                     dE             d eps       ncg     rms          rms(c)
DAV:   1    -0.408635749618E+03   -0.51328E-01   -0.10168E+01  5040   0.458E+00    0.248E+00
RMM:   2    -0.408704030806E+03   -0.68281E-01   -0.58898E-01  4960   0.138E+00    0.202E+00
RMM:   3    -0.409295196702E+03   -0.59117E+00   -0.29931E-01  5089   0.741E-01    0.540E+00
RMM:   4    -0.409124029907E+03    0.17117E+00   -0.11194E-01  5114   0.427E-01    0.784E+00
RMM:   5    -0.408764557473E+03    0.35947E+00   -0.42795E-02  5053   0.241E-01    0.224E+00
RMM:   6    -0.408735623153E+03    0.28934E-01   -0.14397E-02  5651   0.128E-01    0.187E+00
RMM:   7    -0.408705348561E+03    0.30275E-01   -0.69026E-03  5319   0.713E-02    0.107E+00
RMM:   8    -0.408698161149E+03    0.71874E-02   -0.41976E-03  5425   0.520E-02    0.849E-01
RMM:   9    -0.408703721355E+03   -0.55602E-02   -0.12375E-02  6013   0.942E-02    0.138E+00
RMM:  10    -0.408704761399E+03   -0.10400E-02   -0.21600E-03  5222   0.576E-02    0.143E+00
RMM:  11    -0.408697512183E+03    0.72492E-02   -0.10606E-02  6089   0.828E-02    0.484E-01
RMM:  12    -0.408696327240E+03    0.11849E-02   -0.53293E-04  5164   0.315E-02    0.432E-01
RMM:  13    -0.408693863036E+03    0.24642E-02   -0.10878E-03  5433   0.284E-02    0.146E-01
RMM:  14    -0.408693655351E+03    0.20769E-03   -0.40091E-04  5451   0.204E-02    0.362E-02
RMM:  15    -0.408693681711E+03   -0.26361E-04   -0.73551E-05  5845   0.118E-02    0.435E-02
RMM:  16    -0.408693698388E+03   -0.16676E-04   -0.10276E-05  5342   0.429E-03    0.472E-02
RMM:  17    -0.408693697290E+03    0.10973E-05   -0.84455E-06  5060   0.320E-03    0.114E-02
RMM:  18    -0.408693708196E+03   -0.10906E-04   -0.47471E-06  5451   0.209E-03    0.160E-02
RMM:  19    -0.408693717066E+03   -0.88698E-05   -0.13565E-06  5031   0.134E-03    0.763E-03
RMM:  20    -0.408693726839E+03   -0.97727E-05   -0.11761E-06  4769   0.957E-04    0.518E-03
RMM:  21    -0.408693735098E+03   -0.82598E-05   -0.77312E-07  4778   0.649E-04    0.256E-03
RMM:  22    -0.408693741398E+03   -0.62995E-05   -0.60147E-07  4716   0.498E-04    0.138E-03
RMM:  23    -0.408693746861E+03   -0.54628E-05   -0.70333E-07  4820   0.467E-04    0.676E-04
RMM:  24    -0.408693748993E+03   -0.21325E-05   -0.23462E-07  4216   0.278E-04    0.990E-04
RMM:  25    -0.408693750132E+03   -0.11390E-05   -0.90842E-08  3510   0.189E-04    0.427E-04
RMM:  26    -0.408693750746E+03   -0.61402E-06   -0.34560E-08  2888   0.125E-04    0.386E-04
RMM:  27    -0.408693751502E+03   -0.75622E-06   -0.38802E-08  2999   0.119E-04    0.498E-04
RMM:  28    -0.408693751844E+03   -0.34138E-06   -0.13559E-08  2480   0.829E-05    0.113E-04
RMM:  29    -0.408693752066E+03   -0.22191E-06   -0.87078E-09  2324   0.700E-05    0.972E-05
RMM:  30    -0.408693752206E+03   -0.14036E-06   -0.81922E-09  2234   0.661E-05    0.545E-05
RMM:  31    -0.408693752228E+03   -0.21530E-07   -0.17871E-09  1665   0.485E-05    0.480E-05
RMM:  32    -0.408693752233E+03   -0.56934E-08   -0.94084E-10  1459   0.430E-05
  14 F= -.40869375E+03 E0= -.40866129E+03  d E =-.109331E+00
       N       E                     dE             d eps       ncg     rms          rms(c)
DAV:   1    -0.408657051457E+03    0.36701E-01   -0.14242E+01  4960   0.542E+00    0.298E+00
RMM:   2    -0.408735164851E+03   -0.78113E-01   -0.82508E-01  4960   0.163E+00    0.142E+00
RMM:   3    -0.409096831847E+03   -0.36167E+00   -0.35562E-01  5016   0.858E-01    0.319E+00
RMM:   4    -0.409321685877E+03   -0.22485E+00   -0.10850E-01  5163   0.454E-01    0.980E+00
RMM:   5    -0.408794416527E+03    0.52727E+00   -0.35079E-02  5021   0.247E-01    0.190E+00
RMM:   6    -0.408748364164E+03    0.46052E-01   -0.18958E-02  5497   0.144E-01    0.113E+00
RMM:   7    -0.408745101285E+03    0.32629E-02   -0.44664E-03  5564   0.672E-02    0.106E+00
RMM:   8    -0.408746072227E+03   -0.97094E-03   -0.14431E-03  5455   0.361E-02    0.113E+00
RMM:   9    -0.408743591353E+03    0.24809E-02   -0.15796E-02  6630   0.113E-01    0.927E-01
RMM:  10    -0.408747499511E+03   -0.39082E-02   -0.51561E-03  5884   0.770E-02    0.123E+00
RMM:  11    -0.408742373797E+03    0.51257E-02   -0.91211E-03  5780   0.736E-02    0.566E-01
RMM:  12    -0.408738660266E+03    0.37135E-02   -0.90176E-04  5138   0.334E-02    0.223E-01
RMM:  13    -0.408738619500E+03    0.40766E-04   -0.93153E-04  5347   0.309E-02    0.248E-01
RMM:  14    -0.408738206469E+03    0.41303E-03   -0.32673E-04  5339   0.225E-02    0.837E-02
RMM:  15    -0.408738206056E+03    0.41296E-06   -0.56350E-05  5712   0.108E-02    0.728E-02
RMM:  16    -0.408738199394E+03    0.66616E-05   -0.28131E-05  5131   0.570E-03    0.484E-02
RMM:  17    -0.408738232551E+03   -0.33157E-04   -0.13653E-05  5069   0.394E-03    0.577E-02
RMM:  18    -0.408738225749E+03    0.68019E-05   -0.49908E-06  5133   0.261E-03    0.240E-02
RMM:  19    -0.408738242988E+03   -0.17239E-04   -0.56108E-06  5381   0.221E-03    0.126E-02
RMM:  20    -0.408738257696E+03   -0.14708E-04   -0.17854E-06  5094   0.124E-03    0.897E-03
RMM:  21    -0.408738268338E+03   -0.10643E-04   -0.13544E-06  4959   0.931E-04    0.679E-03
RMM:  22    -0.408738276143E+03   -0.78045E-05   -0.84509E-07  4846   0.652E-04    0.340E-03
RMM:  23    -0.408738283444E+03   -0.73016E-05   -0.87383E-07  4730   0.534E-04    0.177E-03
RMM:  24    -0.408738286826E+03   -0.33813E-05   -0.45490E-07  4561   0.377E-04    0.791E-04
RMM:  25    -0.408738288901E+03   -0.20756E-05   -0.19264E-07  3951   0.256E-04    0.151E-03
RMM:  26    -0.408738289657E+03   -0.75594E-06   -0.56798E-08  3204   0.153E-04    0.854E-04
RMM:  27    -0.408738290372E+03   -0.71467E-06   -0.33567E-08  2986   0.128E-04    0.716E-04
RMM:  28    -0.408738290771E+03   -0.39938E-06   -0.15043E-08  2629   0.917E-05    0.368E-04
RMM:  29    -0.408738291069E+03   -0.29738E-06   -0.12136E-08  2532   0.796E-05    0.824E-05
RMM:  30    -0.408738291247E+03   -0.17785E-06   -0.10062E-08  2467   0.729E-05    0.162E-04
RMM:  31    -0.408738291267E+03   -0.20431E-07   -0.14403E-09  1596   0.470E-05    0.920E-05
RMM:  32    -0.408738291279E+03   -0.12391E-07   -0.11676E-09  1573   0.447E-05    0.631E-05
RMM:  33    -0.408738291283E+03   -0.39872E-08   -0.61634E-10  1363   0.406E-05
  15 F= -.40873829E+03 E0= -.40870595E+03  d E =-.153870E+00
       N       E                     dE             d eps       ncg     rms          rms(c)
DAV:   1    -0.408744384904E+03   -0.60936E-02   -0.14105E+01  5008   0.545E+00    0.303E+00
RMM:   2    -0.409229410287E+03   -0.48503E+00   -0.85602E-01  4960   0.164E+00    0.929E+00
RMM:   3    -0.409016926254E+03    0.21248E+00   -0.24545E-01  5170   0.804E-01    0.426E+00
RMM:   4    -0.409285163038E+03   -0.26824E+00   -0.10521E-01  5166   0.441E-01    0.869E+00
RMM:   5    -0.408859734218E+03    0.42543E+00   -0.43551E-02  5169   0.249E-01    0.167E+00
RMM:   6    -0.408859098118E+03    0.63610E-03   -0.24452E-02  5414   0.149E-01    0.166E+00
RMM:   7    -0.408831967988E+03    0.27130E-01   -0.79439E-03  5082   0.853E-02    0.958E-01
RMM:   8    -0.408830270276E+03    0.16977E-02   -0.26296E-02  5758   0.133E-01    0.895E-01
RMM:   9    -0.408834796615E+03   -0.45263E-02   -0.50291E-03  5247   0.798E-02    0.131E+00
RMM:  10    -0.408828665534E+03    0.61311E-02   -0.18894E-03  5691   0.519E-02    0.735E-01
RMM:  11    -0.408826268899E+03    0.23966E-02   -0.15427E-03  5360   0.364E-02    0.409E-01
RMM:  12    -0.408825656180E+03    0.61272E-03   -0.21279E-04  5455   0.180E-02    0.264E-01
RMM:  13    -0.408825338171E+03    0.31801E-03   -0.11574E-04  5356   0.124E-02    0.155E-01
RMM:  14    -0.408825172521E+03    0.16565E-03   -0.21899E-04  5604   0.153E-02    0.275E-02
RMM:  15    -0.408825181345E+03   -0.88235E-05   -0.49238E-05  6178   0.873E-03    0.148E-02
RMM:  16    -0.408825188643E+03   -0.72978E-05   -0.55740E-06  5045   0.342E-03    0.201E-02
RMM:  17    -0.408825190607E+03   -0.19643E-05   -0.18269E-06  5474   0.188E-03    0.786E-03
RMM:  18    -0.408825193035E+03   -0.24282E-05   -0.61026E-07  5437   0.981E-04    0.183E-03
RMM:  19    -0.408825195963E+03   -0.29281E-05   -0.41895E-07  4988   0.677E-04    0.192E-03
RMM:  20    -0.408825198980E+03   -0.30168E-05   -0.22170E-07  4494   0.458E-04    0.149E-03
RMM:  21    -0.408825200566E+03   -0.15860E-05   -0.86875E-08  3962   0.285E-04    0.672E-04
RMM:  22    -0.408825202649E+03   -0.20829E-05   -0.13881E-07  4289   0.291E-04    0.131E-03
RMM:  23    -0.408825204930E+03   -0.22807E-05   -0.11539E-07  3915   0.239E-04    0.331E-04
RMM:  24    -0.408825206080E+03   -0.11502E-05   -0.46991E-08  3275   0.152E-04    0.336E-04
RMM:  25    -0.408825207278E+03   -0.11981E-05   -0.60493E-08  3249   0.152E-04    0.317E-04
RMM:  26    -0.408825208051E+03   -0.77315E-06   -0.38056E-08  3065   0.124E-04    0.169E-04
RMM:  27    -0.408825208508E+03   -0.45670E-06   -0.25745E-08  2651   0.998E-05    0.757E-05
RMM:  28    -0.408825208648E+03   -0.13999E-06   -0.89220E-09  2294   0.719E-05    0.756E-05
RMM:  29    -0.408825208675E+03   -0.27594E-07   -0.24673E-09  1928   0.537E-05    0.191E-05
RMM:  30    -0.408825208680E+03   -0.47658E-08   -0.86943E-10  1488   0.428E-05
  16 F= -.40882521E+03 E0= -.40879280E+03  d E =-.869174E-01
       N       E                     dE             d eps       ncg     rms          rms(c)
DAV:   1    -0.408813366225E+03    0.11842E-01   -0.42061E+00  5008   0.298E+00    0.164E+00
RMM:   2    -0.408932611487E+03   -0.11925E+00   -0.25436E-01  4960   0.895E-01    0.445E+00
RMM:   3    -0.408918695200E+03    0.13916E-01   -0.77712E-02  5150   0.443E-01    0.260E+00
RMM:   4    -0.408909080627E+03    0.96146E-02   -0.25135E-02  5144   0.232E-01    0.345E+00
RMM:   5    -0.408843939030E+03    0.65142E-01   -0.85642E-03  5398   0.122E-01    0.756E-01
RMM:   6    -0.408846031396E+03   -0.20924E-02   -0.46843E-03  5264   0.678E-02    0.907E-01
RMM:   7    -0.408838897575E+03    0.71338E-02   -0.17030E-03  5074   0.403E-02    0.492E-01
RMM:   8    -0.408841694377E+03   -0.27968E-02   -0.85796E-03  6191   0.824E-02    0.825E-01
RMM:   9    -0.408839988123E+03    0.17063E-02   -0.99719E-04  5245   0.404E-02    0.610E-01
RMM:  10    -0.408838071704E+03    0.19164E-02   -0.77574E-04  5304   0.295E-02    0.295E-01
RMM:  11    -0.408837584720E+03    0.48698E-03   -0.16591E-04  5314   0.148E-02    0.131E-01
RMM:  12    -0.408837496677E+03    0.88043E-04   -0.10650E-04  5192   0.119E-02    0.711E-02
RMM:  13    -0.408837467441E+03    0.29236E-04   -0.70473E-05  5691   0.985E-03    0.178E-02
RMM:  14    -0.408837468879E+03   -0.14378E-05   -0.12811E-05  5799   0.453E-03    0.896E-03
RMM:  15    -0.408837471440E+03   -0.25609E-05   -0.18048E-06  5037   0.198E-03    0.115E-02
RMM:  16    -0.408837472996E+03   -0.15568E-05   -0.81733E-07  5305   0.122E-03    0.337E-03
RMM:  17    -0.408837474163E+03   -0.11668E-05   -0.64657E-07  5086   0.940E-04    0.326E-03
RMM:  18    -0.408837475355E+03   -0.11916E-05   -0.18451E-07  5169   0.569E-04    0.131E-03
RMM:  19    -0.408837476144E+03   -0.78930E-06   -0.43287E-08  3550   0.251E-04    0.528E-04
RMM:  20    -0.408837476866E+03   -0.72219E-06   -0.36924E-08  3529   0.195E-04    0.705E-04
RMM:  21    -0.408837477933E+03   -0.10668E-05   -0.47332E-08  3461   0.168E-04    0.333E-04
RMM:  22    -0.408837478886E+03   -0.95331E-06   -0.45955E-08  3171   0.143E-04    0.283E-04
RMM:  23    -0.408837479456E+03   -0.56928E-06   -0.24305E-08  2730   0.106E-04    0.192E-04
RMM:  24    -0.408837479871E+03   -0.41497E-06   -0.19750E-08  2707   0.942E-05    0.209E-04
RMM:  25    -0.408837480024E+03   -0.15342E-06   -0.58657E-09  2306   0.671E-05    0.932E-05
RMM:  26    -0.408837480162E+03   -0.13837E-06   -0.71819E-09  2308   0.649E-05    0.427E-05
RMM:  27    -0.408837480193E+03   -0.31087E-07   -0.18973E-09  1665   0.475E-05    0.330E-05
RMM:  28    -0.408837480204E+03   -0.10245E-07   -0.13405E-09  1584   0.443E-05    0.155E-05
RMM:  29    -0.408837480204E+03   -0.36380E-09   -0.38468E-10  1302   0.386E-05
  17 F= -.40883748E+03 E0= -.40880505E+03  d E =-.991889E-01
       N       E                     dE             d eps       ncg     rms          rms(c)
DAV:   1    -0.408827446604E+03    0.10034E-01   -0.17179E+01  4960   0.610E+00    0.337E+00
RMM:   2    -0.410355200099E+03   -0.15278E+01   -0.11456E+00  4971   0.186E+00    0.123E+01
RMM:   3    -0.409035609649E+03    0.13196E+01   -0.28073E-01  5016   0.909E-01    0.326E+00
RMM:   4    -0.408954720419E+03    0.80889E-01   -0.62736E-02  5236   0.441E-01    0.189E+00
RMM:   5    -0.408952388463E+03    0.23320E-02   -0.24243E-02  5652   0.223E-01    0.192E+00
RMM:   6    -0.408926465721E+03    0.25923E-01   -0.62453E-03  5050   0.106E-01    0.101E+00
RMM:   7    -0.408929206441E+03   -0.27407E-02   -0.23002E-02  5489   0.142E-01    0.117E+00
RMM:   8    -0.408937059549E+03   -0.78531E-02   -0.73146E-03  5180   0.947E-02    0.148E+00
RMM:   9    -0.408926715661E+03    0.10344E-01   -0.36394E-03  5401   0.641E-02    0.841E-01
RMM:  10    -0.408922509068E+03    0.42066E-02   -0.24593E-03  5413   0.483E-02    0.380E-01
RMM:  11    -0.408921493963E+03    0.10151E-02   -0.93523E-04  5719   0.293E-02    0.164E-01
RMM:  12    -0.408921670751E+03   -0.17679E-03   -0.12586E-04  5074   0.149E-02    0.220E-01
RMM:  13    -0.408921300520E+03    0.37023E-03   -0.30980E-04  5312   0.196E-02    0.874E-02
RMM:  14    -0.408921259734E+03    0.40786E-04   -0.16651E-04  5267   0.159E-02    0.349E-02
RMM:  15    -0.408921261561E+03   -0.18271E-05   -0.34540E-05  5972   0.804E-03    0.173E-02
RMM:  16    -0.408921269149E+03   -0.75874E-05   -0.60784E-06  5332   0.348E-03    0.157E-02
RMM:  17    -0.408921273262E+03   -0.41133E-05   -0.35883E-06  5317   0.226E-03    0.692E-03
RMM:  18    -0.408921275761E+03   -0.24991E-05   -0.15066E-06  5887   0.140E-03    0.392E-03
RMM:  19    -0.408921277862E+03   -0.21010E-05   -0.35577E-07  4834   0.748E-04    0.992E-04
RMM:  20    -0.408921279777E+03   -0.19149E-05   -0.32734E-07  4698   0.608E-04    0.106E-03
RMM:  21    -0.408921280547E+03   -0.77027E-06   -0.79100E-08  3889   0.311E-04    0.333E-04
RMM:  22    -0.408921281106E+03   -0.55928E-06   -0.47832E-08  3581   0.201E-04    0.189E-04
RMM:  23    -0.408921281339E+03   -0.23259E-06   -0.18912E-08  3160   0.123E-04    0.142E-04
RMM:  24    -0.408921281444E+03   -0.10522E-06   -0.67416E-09  2657   0.823E-05    0.653E-05
RMM:  25    -0.408921281525E+03   -0.80843E-07   -0.55832E-09  2403   0.690E-05    0.685E-05
RMM:  26    -0.408921281539E+03   -0.14035E-07   -0.10805E-09  1728   0.491E-05    0.345E-05
RMM:  27    -0.408921281553E+03   -0.14268E-07   -0.10092E-09  1456   0.436E-05    0.887E-06
RMM:  28    -0.408921281559E+03   -0.52423E-08   -0.39720E-10  1322   0.416E-05
  18 F= -.40892128E+03 E0= -.40889003E+03  d E =-.838014E-01
       N       E                     dE             d eps       ncg     rms          rms(c)
DAV:   1    -0.408913725786E+03    0.75558E-02   -0.26737E+00  5056   0.241E+00    0.132E+00
RMM:   2    -0.409236467512E+03   -0.32274E+00   -0.18366E-01  4985   0.737E-01    0.832E+00
RMM:   3    -0.408939587992E+03    0.29688E+00   -0.42103E-02  4999   0.359E-01    0.107E+00
RMM:   4    -0.408929698376E+03    0.98896E-02   -0.82837E-03  5324   0.170E-01    0.456E-01
RMM:   5    -0.408930970950E+03   -0.12726E-02   -0.25291E-03  5807   0.803E-02    0.586E-01
RMM:   6    -0.408928593405E+03    0.23775E-02   -0.55095E-04  4960   0.345E-02    0.325E-01
RMM:   7    -0.408932762763E+03   -0.41694E-02   -0.44039E-03  5985   0.663E-02    0.790E-01
RMM:   8    -0.408931095285E+03    0.16675E-02   -0.79186E-04  5316   0.331E-02    0.625E-01
RMM:   9    -0.408929054168E+03    0.20411E-02   -0.21296E-04  5127   0.179E-02    0.314E-01
RMM:  10    -0.408928467049E+03    0.58712E-03   -0.24696E-04  5197   0.152E-02    0.145E-01
RMM:  11    -0.408928349976E+03    0.11707E-03   -0.11300E-04  5578   0.119E-02    0.797E-02
RMM:  12    -0.408928331985E+03    0.17991E-04   -0.30297E-05  5745   0.683E-03    0.605E-02
RMM:  13    -0.408928311609E+03    0.20376E-04   -0.99454E-06  5434   0.366E-03    0.226E-02
RMM:  14    -0.408928310113E+03    0.14957E-05   -0.29718E-06  5842   0.222E-03    0.745E-03
RMM:  15    -0.408928310681E+03   -0.56724E-06   -0.80649E-07  5835   0.110E-03    0.461E-03
RMM:  16    -0.408928311118E+03   -0.43765E-06   -0.31752E-07  5236   0.623E-04    0.178E-03
RMM:  17    -0.408928311496E+03   -0.37776E-06   -0.75968E-08  4161   0.357E-04    0.452E-04
RMM:  18    -0.408928311757E+03   -0.26053E-06   -0.39632E-08  3551   0.236E-04    0.275E-04
RMM:  19    -0.408928311932E+03   -0.17580E-06   -0.23616E-08  3280   0.164E-04    0.152E-04
RMM:  20    -0.408928312046E+03   -0.11333E-06   -0.12552E-08  2992   0.116E-04    0.922E-05
RMM:  21    -0.408928312095E+03   -0.49542E-07   -0.39172E-09  2611   0.732E-05    0.996E-05
RMM:  22    -0.408928312131E+03   -0.35878E-07   -0.24702E-09  2125   0.564E-05    0.109E-04
RMM:  23    -0.408928312157E+03   -0.25419E-07   -0.19834E-09  1884   0.502E-05    0.413E-05
RMM:  24    -0.408928312168E+03   -0.11507E-07   -0.76401E-10  1465   0.433E-05    0.169E-05
RMM:  25    -0.408928312174E+03   -0.60209E-08   -0.49634E-10  1348   0.414E-05
  19 F= -.40892831E+03 E0= -.40889760E+03  d E =-.908320E-01
       N       E                     dE             d eps       ncg     rms          rms(c)
DAV:   1    -0.408918703857E+03    0.96083E-02   -0.91079E+00  4960   0.450E+00    0.264E+00
RMM:   2    -0.409003136514E+03   -0.84433E-01   -0.56747E-01  4960   0.135E+00    0.170E+00
RMM:   3    -0.410554400330E+03   -0.15513E+01   -0.26865E-01  5019   0.730E-01    0.130E+01
RMM:   4    -0.408990788220E+03    0.15636E+01   -0.98248E-02  5090   0.419E-01    0.145E+00
RMM:   5    -0.408989913596E+03    0.87462E-03   -0.27083E-02  5427   0.209E-01    0.136E+00
RMM:   6    -0.408980776092E+03    0.91375E-02   -0.56139E-03  5318   0.102E-01    0.102E+00
RMM:   7    -0.408979751610E+03    0.10245E-02   -0.17252E-03  5271   0.527E-02    0.927E-01
RMM:   8    -0.408975295376E+03    0.44562E-02   -0.35924E-03  5225   0.604E-02    0.553E-01
RMM:   9    -0.408978656000E+03   -0.33606E-02   -0.12105E-02  6461   0.113E-01    0.807E-01
RMM:  10    -0.408974354040E+03    0.43020E-02   -0.11671E-03  5024   0.442E-02    0.175E-01
RMM:  11    -0.408974116177E+03    0.23786E-03   -0.59111E-04  5563   0.271E-02    0.113E-01
RMM:  12    -0.408974023752E+03    0.92426E-04   -0.32836E-04  5338   0.200E-02    0.571E-02
RMM:  13    -0.408974022904E+03    0.84752E-06   -0.83425E-05  5627   0.124E-02    0.379E-02
RMM:  14    -0.408974025944E+03   -0.30396E-05   -0.23083E-05  5740   0.636E-03    0.178E-02
RMM:  15    -0.408974030819E+03   -0.48758E-05   -0.45591E-06  5681   0.304E-03    0.105E-02
RMM:  16    -0.408974036086E+03   -0.52663E-05   -0.11187E-06  5223   0.152E-03    0.871E-03
RMM:  17    -0.408974038503E+03   -0.24176E-05   -0.47084E-07  5490   0.864E-04    0.247E-03
RMM:  18    -0.408974040430E+03   -0.19266E-05   -0.13720E-07  4245   0.421E-04    0.108E-03
RMM:  19    -0.408974041910E+03   -0.14805E-05   -0.89584E-08  4159   0.316E-04    0.981E-04
RMM:  20    -0.408974042736E+03   -0.82565E-06   -0.32820E-08  3430   0.188E-04    0.789E-04
RMM:  21    -0.408974043660E+03   -0.92422E-06   -0.36734E-08  3349   0.150E-04    0.720E-04
RMM:  22    -0.408974044125E+03   -0.46492E-06   -0.19912E-08  2887   0.105E-04    0.371E-04
RMM:  23    -0.408974044332E+03   -0.20632E-06   -0.77907E-09  2393   0.736E-05    0.374E-04
RMM:  24    -0.408974044507E+03   -0.17540E-06   -0.11040E-08  2642   0.760E-05    0.147E-04
RMM:  25    -0.408974044546E+03   -0.38974E-07   -0.24361E-09  1841   0.508E-05    0.581E-05
RMM:  26    -0.408974044578E+03   -0.32418E-07   -0.37530E-09  1978   0.534E-05    0.452E-05
RMM:  27    -0.408974044582E+03   -0.38854E-08   -0.51472E-10  1426   0.423E-05
  20 F= -.40897404E+03 E0= -.40894354E+03  d E =-.457324E-01
       N       E                     dE             d eps       ncg     rms          rms(c)
DAV:   1    -0.408972352565E+03    0.16920E-02   -0.62124E-01  5168   0.117E+00    0.680E-01
RMM:   2    -0.408979679263E+03   -0.73267E-02   -0.38627E-02  4960   0.353E-01    0.710E-01
RMM:   3    -0.409080961386E+03   -0.10128E+00   -0.18524E-02  5008   0.191E-01    0.462E+00
RMM:   4    -0.408976626360E+03    0.10434E+00   -0.59360E-03  5071   0.109E-01    0.334E-01
RMM:   5    -0.408977255727E+03   -0.62937E-03   -0.16350E-03  5473   0.536E-02    0.385E-01
RMM:   6    -0.408976348076E+03    0.90765E-03   -0.36742E-04  5273   0.257E-02    0.230E-01
RMM:   7    -0.408976175996E+03    0.17208E-03   -0.33741E-04  5018   0.222E-02    0.132E-01
RMM:   8    -0.408976660983E+03   -0.48499E-03   -0.27395E-04  5187   0.176E-02    0.267E-01
RMM:   9    -0.408976149577E+03    0.51141E-03   -0.31699E-04  5671   0.196E-02    0.801E-02
RMM:  10    -0.408976102430E+03    0.47148E-04   -0.30463E-05  4962   0.899E-03    0.309E-02
RMM:  11    -0.408976093654E+03    0.87755E-05   -0.34662E-05  5028   0.700E-03    0.945E-03
RMM:  12    -0.408976094922E+03   -0.12673E-05   -0.11229E-05  5990   0.436E-03    0.523E-03
RMM:  13    -0.408976095277E+03   -0.35543E-06   -0.81484E-07  5065   0.147E-03    0.429E-03
RMM:  14    -0.408976096223E+03   -0.94598E-06   -0.59083E-07  4965   0.107E-03    0.206E-03
RMM:  15    -0.408976096502E+03   -0.27887E-06   -0.13079E-07  4959   0.582E-04    0.141E-03
RMM:  16    -0.408976096693E+03   -0.19131E-06   -0.79334E-08  4534   0.377E-04    0.658E-04
RMM:  17    -0.408976096986E+03   -0.29269E-06   -0.24518E-08  3301   0.216E-04    0.343E-04
RMM:  18    -0.408976097052E+03   -0.66211E-07   -0.56632E-09  3052   0.112E-04    0.322E-04
RMM:  19    -0.408976097137E+03   -0.84943E-07   -0.43894E-09  2736   0.814E-05    0.932E-05
RMM:  20    -0.408976097218E+03   -0.81098E-07   -0.37578E-09  2592   0.673E-05    0.159E-04
RMM:  21    -0.408976097257E+03   -0.38915E-07   -0.13748E-09  1680   0.484E-05    0.122E-04
RMM:  22    -0.408976097283E+03   -0.26444E-07   -0.10972E-09  1438   0.442E-05    0.716E-05
RMM:  23    -0.408976097299E+03   -0.15811E-07   -0.10262E-09  1594   0.444E-05    0.578E-05
RMM:  24    -0.408976097309E+03   -0.98735E-08   -0.71408E-10  1439   0.412E-05
  21 F= -.40897610E+03 E0= -.40894565E+03  d E =-.477851E-01
       N       E                     dE             d eps       ncg     rms          rms(c)
DAV:   1    -0.408980239951E+03   -0.41427E-02   -0.71712E+00  4960   0.387E+00    0.194E+00
RMM:   2    -0.409042334043E+03   -0.62094E-01   -0.41735E-01  4960   0.115E+00    0.146E+00
RMM:   3    -0.409933363800E+03   -0.89103E+00   -0.18498E-01  5055   0.607E-01    0.117E+01
RMM:   4    -0.409031571928E+03    0.90179E+00   -0.61540E-02  5068   0.344E-01    0.121E+00
RMM:   5    -0.409036569898E+03   -0.49980E-02   -0.16376E-02  5539   0.168E-01    0.132E+00
RMM:   6    -0.409029181862E+03    0.73880E-02   -0.28830E-03  5372   0.756E-02    0.104E+00
RMM:   7    -0.409025411903E+03    0.37700E-02   -0.30809E-03  5036   0.616E-02    0.674E-01
RMM:   8    -0.409022345488E+03    0.30664E-02   -0.19366E-03  5098   0.505E-02    0.323E-01
RMM:   9    -0.409022795862E+03   -0.45037E-03   -0.21249E-03  5516   0.533E-02    0.299E-01
RMM:  10    -0.409022500143E+03    0.29572E-03   -0.49816E-04  5672   0.300E-02    0.233E-01
RMM:  11    -0.409022086535E+03    0.41361E-03   -0.19276E-04  5020   0.167E-02    0.972E-02
RMM:  12    -0.409022024111E+03    0.62424E-04   -0.28196E-04  5179   0.191E-02    0.503E-02
RMM:  13    -0.409022017466E+03    0.66448E-05   -0.82538E-05  5694   0.130E-02    0.294E-02
RMM:  14    -0.409022016759E+03    0.70708E-06   -0.14561E-05  5652   0.533E-03    0.218E-02
RMM:  15    -0.409022014948E+03    0.18108E-05   -0.21960E-06  5127   0.229E-03    0.130E-02
RMM:  16    -0.409022014991E+03   -0.43015E-07   -0.17015E-06  5176   0.167E-03    0.452E-03
RMM:  17    -0.409022015429E+03   -0.43715E-06   -0.47698E-07  5885   0.936E-04    0.263E-03
RMM:  18    -0.409022015753E+03   -0.32405E-06   -0.87380E-08  4557   0.411E-04    0.158E-03
RMM:  19    -0.409022016105E+03   -0.35224E-06   -0.77956E-08  4370   0.338E-04    0.578E-04
RMM:  20    -0.409022016225E+03   -0.12046E-06   -0.36560E-08  3664   0.240E-04    0.447E-04
RMM:  21    -0.409022016317E+03   -0.91695E-07   -0.16008E-08  3169   0.156E-04    0.748E-04
RMM:  22    -0.409022016441E+03   -0.12375E-06   -0.10257E-08  2984   0.104E-04    0.466E-04
RMM:  23    -0.409022016491E+03   -0.49971E-07   -0.37042E-09  2418   0.635E-05    0.328E-04
RMM:  24    -0.409022016524E+03   -0.32851E-07   -0.15101E-09  1775   0.478E-05    0.275E-04
RMM:  25    -0.409022016575E+03   -0.51750E-07   -0.46900E-09  2152   0.552E-05    0.515E-05
RMM:  26    -0.409022016588E+03   -0.12602E-07   -0.46292E-10  1325   0.409E-05    0.285E-05
RMM:  27    -0.409022016609E+03   -0.20853E-07   -0.19196E-09  1656   0.453E-05    0.535E-05
RMM:  28    -0.409022016614E+03   -0.56825E-08   -0.31993E-10  1307   0.404E-05
  22 F= -.40902202E+03 E0= -.40899174E+03  d E =-.459193E-01
       N       E                     dE             d eps       ncg     rms          rms(c)
DAV:   1    -0.408992005435E+03    0.30011E-01   -0.80212E+00  4960   0.409E+00    0.206E+00
RMM:   2    -0.409073812655E+03   -0.81807E-01   -0.46791E-01  4960   0.122E+00    0.181E+00
RMM:   3    -0.409999325629E+03   -0.92551E+00   -0.20633E-01  5055   0.642E-01    0.119E+01
RMM:   4    -0.409049905660E+03    0.94942E+00   -0.66294E-02  5065   0.362E-01    0.130E+00
RMM:   5    -0.409055246023E+03   -0.53404E-02   -0.17538E-02  5509   0.176E-01    0.140E+00
RMM:   6    -0.409048133292E+03    0.71127E-02   -0.33345E-03  5562   0.800E-02    0.117E+00
RMM:   7    -0.409042776640E+03    0.53567E-02   -0.30203E-03  5028   0.612E-02    0.764E-01
RMM:   8    -0.409039027688E+03    0.37490E-02   -0.23040E-03  5089   0.541E-02    0.362E-01
RMM:   9    -0.409039709475E+03   -0.68179E-03   -0.29485E-03  5775   0.612E-02    0.366E-01
RMM:  10    -0.409039233591E+03    0.47588E-03   -0.42340E-04  5246   0.298E-02    0.275E-01
RMM:  11    -0.409038696023E+03    0.53757E-03   -0.27588E-04  5042   0.193E-02    0.104E-01
RMM:  12    -0.409038635576E+03    0.60447E-04   -0.24930E-04  5230   0.185E-02    0.638E-02
RMM:  13    -0.409038618722E+03    0.16854E-04   -0.10087E-04  5742   0.133E-02    0.343E-02
RMM:  14    -0.409038617217E+03    0.15051E-05   -0.18444E-05  5486   0.611E-03    0.263E-02
RMM:  15    -0.409038613212E+03    0.40048E-05   -0.47335E-06  5444   0.303E-03    0.729E-03
RMM:  16    -0.409038614392E+03   -0.11799E-05   -0.14537E-06  5646   0.171E-03    0.650E-03
RMM:  17    -0.409038614824E+03   -0.43189E-06   -0.39395E-07  5656   0.839E-04    0.343E-03
RMM:  18    -0.409038615328E+03   -0.50446E-06   -0.11122E-07  4539   0.434E-04    0.108E-03
RMM:  19    -0.409038615694E+03   -0.36543E-06   -0.59975E-08  4001   0.287E-04    0.871E-04
RMM:  20    -0.409038615826E+03   -0.13292E-06   -0.18296E-08  3186   0.159E-04    0.548E-04
RMM:  21    -0.409038616008E+03   -0.18147E-06   -0.15575E-08  3110   0.126E-04    0.623E-04
RMM:  22    -0.409038616103E+03   -0.95315E-07   -0.75074E-09  2832   0.852E-05    0.239E-04
RMM:  23    -0.409038616144E+03   -0.41080E-07   -0.25516E-09  2288   0.594E-05    0.299E-04
RMM:  24    -0.409038616190E+03   -0.45406E-07   -0.26053E-09  1869   0.515E-05    0.159E-04
RMM:  25    -0.409038616216E+03   -0.26674E-07   -0.18905E-09  1784   0.484E-05    0.740E-05
RMM:  26    -0.409038616231E+03   -0.14923E-07   -0.68809E-10  1472   0.426E-05    0.429E-05
RMM:  27    -0.409038616244E+03   -0.12547E-07   -0.98933E-10  1453   0.424E-05    0.166E-05
RMM:  28    -0.409038616249E+03   -0.49258E-08   -0.20181E-10  1217   0.393E-05
  23 F= -.40903862E+03 E0= -.40900853E+03  d E =-.625189E-01
       N       E                     dE             d eps       ncg     rms          rms(c)
DAV:   1    -0.409044830673E+03   -0.62144E-02   -0.28837E+00  5008   0.244E+00    0.152E+00
RMM:   2    -0.409392395321E+03   -0.34756E+00   -0.21671E-01  5018   0.762E-01    0.857E+00
RMM:   3    -0.409083469664E+03    0.30893E+00   -0.47984E-02  4970   0.376E-01    0.127E+00
RMM:   4    -0.409068344633E+03    0.15125E-01   -0.10170E-02  5430   0.179E-01    0.846E-01
RMM:   5    -0.409063649669E+03    0.46950E-02   -0.20158E-03  5092   0.818E-02    0.490E-01
RMM:   6    -0.409063177117E+03    0.47255E-03   -0.11385E-03  5560   0.453E-02    0.510E-01
RMM:   7    -0.409061884351E+03    0.12928E-02   -0.15416E-03  5184   0.442E-02    0.263E-01
RMM:   8    -0.409062575240E+03   -0.69089E-03   -0.84960E-04  5173   0.353E-02    0.416E-01
RMM:   9    -0.409062277521E+03    0.29772E-03   -0.17429E-04  5102   0.190E-02    0.335E-01
RMM:  10    -0.409061502871E+03    0.77465E-03   -0.99915E-05  5079   0.115E-02    0.105E-01
RMM:  11    -0.409061425890E+03    0.76981E-04   -0.11353E-04  5222   0.108E-02    0.244E-02
RMM:  12    -0.409061432729E+03   -0.68382E-05   -0.19952E-05  5760   0.600E-03    0.317E-02
RMM:  13    -0.409061429910E+03    0.28188E-05   -0.34752E-06  5354   0.262E-03    0.161E-02
RMM:  14    -0.409061430531E+03   -0.62090E-06   -0.15694E-06  5229   0.168E-03    0.393E-03
RMM:  15    -0.409061431837E+03   -0.13062E-05   -0.61516E-07  5847   0.991E-04    0.347E-03
RMM:  16    -0.409061432823E+03   -0.98623E-06   -0.14755E-07  4733   0.454E-04    0.130E-03
RMM:  17    -0.409061433992E+03   -0.11690E-05   -0.12390E-07  4364   0.361E-04    0.239E-03
RMM:  18    -0.409061434541E+03   -0.54907E-06   -0.42267E-08  3581   0.208E-04    0.848E-04
RMM:  19    -0.409061435374E+03   -0.83233E-06   -0.53498E-08  3511   0.185E-04    0.391E-04
RMM:  20    -0.409061436146E+03   -0.77274E-06   -0.64502E-08  3484   0.174E-04    0.989E-04
RMM:  21    -0.409061436496E+03   -0.34976E-06   -0.19365E-08  2807   0.103E-04    0.211E-04
RMM:  22    -0.409061436885E+03   -0.38861E-06   -0.17932E-08  2705   0.927E-05    0.151E-04
RMM:  23    -0.409061437079E+03   -0.19446E-06   -0.75978E-09  2284   0.696E-05    0.247E-04
RMM:  24    -0.409061437187E+03   -0.10810E-06   -0.29557E-09  1942   0.567E-05    0.225E-04
RMM:  25    -0.409061437309E+03   -0.12201E-06   -0.51793E-09  2173   0.589E-05    0.896E-05
RMM:  26    -0.409061437345E+03   -0.36154E-07   -0.15423E-09  1631   0.467E-05    0.689E-05
RMM:  27    -0.409061437366E+03   -0.20202E-07   -0.13996E-09  1544   0.451E-05    0.163E-05
RMM:  28    -0.409061437370E+03   -0.40382E-08   -0.47351E-10  1310   0.406E-05
  24 F= -.40906144E+03 E0= -.40903136E+03  d E =-.228211E-01
       N       E                     dE             d eps       ncg     rms          rms(c)
DAV:   1    -0.409059248299E+03    0.21891E-02   -0.98277E-01  5088   0.142E+00    0.893E-01
RMM:   2    -0.409168365025E+03   -0.10912E+00   -0.74129E-02  5020   0.446E-01    0.493E+00
RMM:   3    -0.409075753348E+03    0.92612E-01   -0.16842E-02  4969   0.221E-01    0.982E-01
RMM:   4    -0.409070042175E+03    0.57112E-02   -0.43473E-03  5314   0.108E-01    0.669E-01
RMM:   5    -0.409067131411E+03    0.29108E-02   -0.13713E-03  5699   0.542E-02    0.528E-01
RMM:   6    -0.409065260802E+03    0.18706E-02   -0.44644E-04  5014   0.268E-02    0.246E-01
RMM:   7    -0.409065922454E+03   -0.66165E-03   -0.14176E-03  5420   0.399E-02    0.362E-01
RMM:   8    -0.409065851201E+03    0.71252E-04   -0.33721E-04  5219   0.230E-02    0.351E-01
RMM:   9    -0.409065330397E+03    0.52080E-03   -0.82546E-05  5050   0.130E-02    0.231E-01
RMM:  10    -0.409064957896E+03    0.37250E-03   -0.12252E-04  5176   0.110E-02    0.208E-02
RMM:  11    -0.409064958628E+03   -0.73172E-06   -0.34819E-05  5569   0.698E-03    0.125E-02
RMM:  12    -0.409064961066E+03   -0.24388E-05   -0.64574E-06  5581   0.342E-03    0.185E-02
RMM:  13    -0.409064959616E+03    0.14499E-05   -0.12896E-06  5617   0.161E-03    0.367E-03
RMM:  14    -0.409064960327E+03   -0.71059E-06   -0.43385E-07  5045   0.915E-04    0.420E-03
RMM:  15    -0.409064960674E+03   -0.34681E-06   -0.14116E-07  4856   0.522E-04    0.228E-03
RMM:  16    -0.409064961088E+03   -0.41418E-06   -0.10427E-07  4386   0.370E-04    0.447E-04
RMM:  17    -0.409064961423E+03   -0.33517E-06   -0.41680E-08  3641   0.232E-04    0.337E-04
RMM:  18    -0.409064961638E+03   -0.21453E-06   -0.16798E-08  3168   0.149E-04    0.675E-04
RMM:  19    -0.409064961887E+03   -0.24905E-06   -0.20694E-08  3063   0.135E-04    0.696E-04
RMM:  20    -0.409064962212E+03   -0.32558E-06   -0.24814E-08  2970   0.116E-04    0.173E-04
RMM:  21    -0.409064962345E+03   -0.13315E-06   -0.74647E-09  2515   0.759E-05    0.189E-04
RMM:  22    -0.409064962453E+03   -0.10770E-06   -0.42883E-09  2146   0.609E-05    0.801E-05
RMM:  23    -0.409064962578E+03   -0.12448E-06   -0.61823E-09  2247   0.611E-05    0.958E-05
RMM:  24    -0.409064962624E+03   -0.46140E-07   -0.14962E-09  1669   0.483E-05    0.998E-05
RMM:  25    -0.409064962662E+03   -0.37893E-07   -0.15727E-09  1599   0.459E-05    0.448E-05
RMM:  26    -0.409064962681E+03   -0.19365E-07   -0.12108E-09  1582   0.450E-05    0.579E-05
RMM:  27    -0.409064962688E+03   -0.69631E-08   -0.60114E-10  1396   0.419E-05
  25 F= -.40906496E+03 E0= -.40903490E+03  d E =-.263464E-01
       N       E                     dE             d eps       ncg     rms          rms(c)
DAV:   1    -0.409075496946E+03   -0.10534E-01   -0.15497E+00  4976   0.178E+00    0.106E+00
RMM:   2    -0.409576971627E+03   -0.50147E+00   -0.13677E-01  5054   0.572E-01    0.947E+00
RMM:   3    -0.409084169084E+03    0.49280E+00   -0.30044E-02  4960   0.287E-01    0.502E-01
RMM:   4    -0.409085623932E+03   -0.14548E-02   -0.69364E-03  5396   0.138E-01    0.564E-01
RMM:   5    -0.409083750442E+03    0.18735E-02   -0.19215E-03  5719   0.640E-02    0.365E-01
RMM:   6    -0.409083747727E+03    0.27151E-05   -0.50447E-04  4998   0.311E-02    0.361E-01
RMM:   7    -0.409084302646E+03   -0.55492E-03   -0.45245E-04  5076   0.234E-02    0.440E-01
RMM:   8    -0.409083476180E+03    0.82647E-03   -0.85262E-04  5634   0.320E-02    0.248E-01
RMM:   9    -0.409083205496E+03    0.27068E-03   -0.11533E-04  5288   0.161E-02    0.135E-01
RMM:  10    -0.409083085918E+03    0.11958E-03   -0.80752E-05  5228   0.974E-03    0.529E-02
RMM:  11    -0.409083070443E+03    0.15475E-04   -0.31534E-05  5509   0.672E-03    0.273E-02
RMM:  12    -0.409083069426E+03    0.10173E-05   -0.96665E-06  6027   0.392E-03    0.184E-02
RMM:  13    -0.409083069184E+03    0.24197E-06   -0.83141E-07  5209   0.147E-03    0.130E-02
RMM:  14    -0.409083068976E+03    0.20783E-06   -0.78601E-07  4997   0.121E-03    0.248E-03
RMM:  15    -0.409083069131E+03   -0.15467E-06   -0.28192E-07  5377   0.684E-04    0.109E-03
RMM:  16    -0.409083069257E+03   -0.12611E-06   -0.75820E-08  4114   0.351E-04    0.811E-04
RMM:  17    -0.409083069430E+03   -0.17327E-06   -0.48782E-08  3694   0.263E-04    0.331E-04
RMM:  18    -0.409083069484E+03   -0.53515E-07   -0.13582E-08  3149   0.146E-04    0.333E-04
RMM:  19    -0.409083069525E+03   -0.41637E-07   -0.47788E-09  2817   0.893E-05    0.348E-04
RMM:  20    -0.409083069593E+03   -0.67303E-07   -0.77417E-09  2747   0.881E-05    0.186E-04
RMM:  21    -0.409083069623E+03   -0.30064E-07   -0.18939E-09  1933   0.532E-05    0.143E-04
RMM:  22    -0.409083069653E+03   -0.29875E-07   -0.19179E-09  1840   0.500E-05    0.826E-05
RMM:  23    -0.409083069674E+03   -0.21053E-07   -0.11553E-09  1711   0.457E-05    0.358E-05
RMM:  24    -0.409083069684E+03   -0.10066E-07   -0.39698E-10  1283   0.399E-05    0.149E-05
RMM:  25    -0.409083069694E+03   -0.97280E-08   -0.61738E-10  1357   0.408E-05
  26 F= -.40908307E+03 E0= -.40905288E+03  d E =-.181070E-01
       N       E                     dE             d eps       ncg     rms          rms(c)
DAV:   1    -0.409075031718E+03    0.80380E-02   -0.41068E+00  4960   0.290E+00    0.169E+00
RMM:   2    -0.410042926830E+03   -0.96790E+00   -0.33579E-01  5036   0.918E-01    0.123E+01
RMM:   3    -0.409100265049E+03    0.94266E+00   -0.70621E-02  4963   0.454E-01    0.810E-01
RMM:   4    -0.409118079459E+03   -0.17814E-01   -0.20254E-02  5319   0.225E-01    0.138E+00
RMM:   5    -0.409097360396E+03    0.20719E-01   -0.67160E-03  5575   0.112E-01    0.579E-01
RMM:   6    -0.409098874307E+03   -0.15139E-02   -0.20409E-03  5308   0.501E-02    0.698E-01
RMM:   7    -0.409096338588E+03    0.25357E-02   -0.15180E-03  5040   0.436E-02    0.437E-01
RMM:   8    -0.409097060039E+03   -0.72145E-03   -0.25449E-03  5406   0.568E-02    0.484E-01
RMM:   9    -0.409096225658E+03    0.83438E-03   -0.51489E-04  5363   0.323E-02    0.272E-01
RMM:  10    -0.409095667827E+03    0.55783E-03   -0.18100E-04  5226   0.164E-02    0.107E-01
RMM:  11    -0.409095611650E+03    0.56177E-04   -0.11621E-04  5245   0.118E-02    0.756E-02
RMM:  12    -0.409095589714E+03    0.21936E-04   -0.45460E-05  5574   0.843E-03    0.526E-02
RMM:  13    -0.409095578244E+03    0.11470E-04   -0.19002E-05  5351   0.539E-03    0.296E-02
RMM:  14    -0.409095575157E+03    0.30870E-05   -0.54713E-06  5876   0.295E-03    0.955E-03
RMM:  15    -0.409095575728E+03   -0.57100E-06   -0.12352E-06  5432   0.137E-03    0.304E-03
RMM:  16    -0.409095576315E+03   -0.58678E-06   -0.57612E-07  5223   0.830E-04    0.176E-03
RMM:  17    -0.409095576719E+03   -0.40431E-06   -0.18371E-07  4661   0.469E-04    0.989E-04
RMM:  18    -0.409095577073E+03   -0.35407E-06   -0.53367E-08  3597   0.266E-04    0.696E-04
RMM:  19    -0.409095577330E+03   -0.25692E-06   -0.33868E-08  3446   0.189E-04    0.113E-03
RMM:  20    -0.409095577431E+03   -0.10018E-06   -0.86968E-09  2869   0.105E-04    0.882E-04
RMM:  21    -0.409095577561E+03   -0.13041E-06   -0.83932E-09  2922   0.960E-05    0.497E-04
RMM:  22    -0.409095577651E+03   -0.89651E-07   -0.39716E-09  2360   0.661E-05    0.356E-04
RMM:  23    -0.409095577696E+03   -0.44973E-07   -0.18234E-09  1868   0.513E-05    0.298E-04
RMM:  24    -0.409095577739E+03   -0.42910E-07   -0.18166E-09  1753   0.492E-05    0.156E-04
RMM:  25    -0.409095577765E+03   -0.26022E-07   -0.13946E-09  1585   0.459E-05    0.641E-05
RMM:  26    -0.409095577777E+03   -0.12544E-07   -0.85279E-10  1429   0.430E-05    0.128E-05
RMM:  27    -0.409095577783E+03   -0.56571E-08   -0.76835E-10  1434   0.426E-05
  27 F= -.40909558E+03 E0= -.40906518E+03  d E =-.306151E-01
       N       E                     dE             d eps       ncg     rms          rms(c)
DAV:   1    -0.409102834581E+03   -0.72568E-02   -0.97572E-01  5024   0.143E+00    0.881E-01
RMM:   2    -0.409118346869E+03   -0.15512E-01   -0.64258E-02  4960   0.431E-01    0.143E+00
RMM:   3    -0.409157223430E+03   -0.38877E-01   -0.22970E-02  5036   0.227E-01    0.182E+00
RMM:   4    -0.409118537467E+03    0.38686E-01   -0.65511E-03  5077   0.121E-01    0.900E-01
RMM:   5    -0.409113407123E+03    0.51303E-02   -0.18925E-03  5458   0.631E-02    0.713E-01
RMM:   6    -0.409111238482E+03    0.21686E-02   -0.83710E-04  5195   0.310E-02    0.549E-01
RMM:   7    -0.409109996082E+03    0.12424E-02   -0.35245E-04  5508   0.187E-02    0.415E-01
RMM:   8    -0.409109094209E+03    0.90187E-03   -0.12369E-03  5861   0.327E-02    0.205E-01
RMM:   9    -0.409110015021E+03   -0.92081E-03   -0.58599E-04  5346   0.277E-02    0.440E-01
RMM:  10    -0.409108946257E+03    0.10688E-02   -0.95647E-05  4991   0.151E-02    0.139E-01
RMM:  11    -0.409108812490E+03    0.13377E-03   -0.11109E-04  5095   0.110E-02    0.280E-02
RMM:  12    -0.409108809072E+03    0.34181E-05   -0.38346E-05  5549   0.746E-03    0.126E-02
RMM:  13    -0.409108811588E+03   -0.25159E-05   -0.10842E-05  5923   0.412E-03    0.129E-02
RMM:  14    -0.409108811681E+03   -0.93012E-07   -0.10564E-06  5112   0.151E-03    0.562E-03
RMM:  15    -0.409108814212E+03   -0.25316E-05   -0.90659E-07  5011   0.111E-03    0.400E-03
RMM:  16    -0.409108815533E+03   -0.13207E-05   -0.27003E-07  4884   0.681E-04    0.365E-03
RMM:  17    -0.409108816344E+03   -0.81047E-06   -0.14429E-07  4730   0.432E-04    0.311E-03
RMM:  18    -0.409108817558E+03   -0.12143E-05   -0.77346E-08  3889   0.274E-04    0.613E-04
RMM:  19    -0.409108818489E+03   -0.93151E-06   -0.96611E-08  4139   0.278E-04    0.908E-04
RMM:  20    -0.409108819029E+03   -0.53932E-06   -0.29598E-08  3309   0.165E-04    0.610E-04
RMM:  21    -0.409108819767E+03   -0.73808E-06   -0.85649E-08  3709   0.186E-04    0.148E-04
RMM:  22    -0.409108819882E+03   -0.11501E-06   -0.83743E-09  2608   0.837E-05    0.207E-04
RMM:  23    -0.409108820047E+03   -0.16516E-06   -0.11679E-08  2477   0.766E-05    0.230E-04
RMM:  24    -0.409108820148E+03   -0.10095E-06   -0.73676E-09  2141   0.628E-05    0.914E-05
RMM:  25    -0.409108820204E+03   -0.56090E-07   -0.16080E-09  1728   0.490E-05    0.406E-05
[...]
RMM:  11    -0.410593685365E+03    0.37336E-03   -0.55046E-05  5051   0.876E-03    0.151E-02
RMM:  12    -0.410593714963E+03   -0.29598E-04   -0.86058E-06  5284   0.453E-03    0.554E-02
RMM:  13    -0.410593700560E+03    0.14402E-04   -0.39171E-06  5272   0.251E-03    0.372E-02
RMM:  14    -0.410593690579E+03    0.99814E-05   -0.24510E-06  5345   0.159E-03    0.106E-02
RMM:  15    -0.410593690239E+03    0.33965E-06   -0.63071E-07  5437   0.900E-04    0.134E-03
RMM:  16    -0.410593690933E+03   -0.69352E-06   -0.18757E-07  4778   0.523E-04    0.307E-03
RMM:  17    -0.410593691302E+03   -0.36908E-06   -0.81122E-08  4237   0.302E-04    0.183E-03
RMM:  18    -0.410593691625E+03   -0.32262E-06   -0.14628E-08  3159   0.157E-04    0.104E-03
RMM:  19    -0.410593692044E+03   -0.41931E-06   -0.24407E-08  3247   0.138E-04    0.604E-04
RMM:  20    -0.410593692223E+03   -0.17906E-06   -0.84284E-09  2654   0.927E-05    0.314E-04
RMM:  21    -0.410593692401E+03   -0.17796E-06   -0.10838E-08  2593   0.901E-05    0.304E-04
RMM:  22    -0.410593692443E+03   -0.42419E-07   -0.33869E-09  2171   0.641E-05    0.584E-05
RMM:  23    -0.410593692478E+03   -0.34972E-07   -0.28006E-09  2040   0.580E-05    0.967E-06
RMM:  24    -0.410593692488E+03   -0.93059E-08   -0.10200E-09  1762   0.484E-05
 141 F= -.41059369E+03 E0= -.41057401E+03  d E =-.220942E-01
       N       E                     dE             d eps       ncg     rms          rms(c)
DAV:   1    -0.410579670618E+03    0.14022E-01   -0.15968E+01  5008   0.513E+00    0.370E+00
RMM:   2    -0.412014120716E+03   -0.14345E+01   -0.11905E+00  4966   0.157E+00    0.471E+00
RMM:   3    -0.410806515834E+03    0.12076E+01   -0.42569E-01  4974   0.880E-01    0.154E+00
RMM:   4    -0.410643264864E+03    0.16325E+00   -0.46765E-02  5044   0.389E-01    0.113E+00
RMM:   5    -0.410648830826E+03   -0.55660E-02   -0.13812E-02  5170   0.189E-01    0.157E+00
RMM:   6    -0.410635633465E+03    0.13197E-01   -0.42878E-03  5031   0.908E-02    0.742E-01
RMM:   7    -0.410809125867E+03   -0.17349E+00   -0.27561E-02  5838   0.141E-01    0.351E+00
RMM:   8    -0.410647127422E+03    0.16200E+00   -0.28525E-02  5889   0.136E-01    0.102E+00
RMM:   9    -0.410632708244E+03    0.14419E-01   -0.14230E-03  4998   0.546E-02    0.192E-01
RMM:  10    -0.410632551681E+03    0.15656E-03   -0.37143E-04  5079   0.253E-02    0.148E-01
RMM:  11    -0.410632339234E+03    0.21245E-03   -0.23503E-04  5008   0.180E-02    0.696E-02
RMM:  12    -0.410632445568E+03   -0.10633E-03   -0.19833E-04  5494   0.164E-02    0.114E-01
RMM:  13    -0.410632338355E+03    0.10721E-03   -0.56008E-05  5403   0.968E-03    0.119E-02
RMM:  14    -0.410632349087E+03   -0.10733E-04   -0.98205E-06  5357   0.443E-03    0.155E-02
RMM:  15    -0.410632354976E+03   -0.58890E-05   -0.32722E-06  5353   0.231E-03    0.132E-02
RMM:  16    -0.410632359408E+03   -0.44319E-05   -0.15609E-06  5028   0.149E-03    0.256E-03
RMM:  17    -0.410632362934E+03   -0.35258E-05   -0.58184E-07  5079   0.900E-04    0.349E-03
RMM:  18    -0.410632365273E+03   -0.23390E-05   -0.19307E-07  4704   0.508E-04    0.808E-04
RMM:  19    -0.410632368308E+03   -0.30352E-05   -0.17373E-07  4370   0.383E-04    0.226E-03
RMM:  20    -0.410632369408E+03   -0.10996E-05   -0.67204E-08  4003   0.233E-04    0.280E-04
RMM:  21    -0.410632370680E+03   -0.12725E-05   -0.73527E-08  3995   0.214E-04    0.448E-04
RMM:  22    -0.410632371122E+03   -0.44225E-06   -0.22276E-08  3046   0.132E-04    0.163E-04
RMM:  23    -0.410632371494E+03   -0.37142E-06   -0.27031E-08  3327   0.131E-04    0.204E-04
RMM:  24    -0.410632371555E+03   -0.61202E-07   -0.42640E-09  2288   0.733E-05    0.394E-05
RMM:  25    -0.410632371623E+03   -0.68150E-07   -0.35497E-09  2188   0.627E-05    0.228E-05
RMM:  26    -0.410632371654E+03   -0.31265E-07   -0.18311E-09  1981   0.521E-05    0.504E-05
RMM:  27    -0.410632371670E+03   -0.15723E-07   -0.10312E-09  1741   0.464E-05    0.241E-05
RMM:  28    -0.410632371676E+03   -0.57516E-08   -0.58681E-10  1521   0.423E-05
 142 F= -.41063237E+03 E0= -.41061388E+03  d E =-.607734E-01
       N       E                     dE             d eps       ncg     rms          rms(c)
DAV:   1    -0.410627787583E+03    0.45841E-02   -0.26711E+00  5120   0.210E+00    0.147E+00
RMM:   2    -0.411426573783E+03   -0.79879E+00   -0.27589E-01  4961   0.695E-01    0.440E+00
RMM:   3    -0.410650472833E+03    0.77610E+00   -0.85837E-02  4960   0.394E-01    0.990E-01
RMM:   4    -0.410649277464E+03    0.11954E-02   -0.94530E-03  5071   0.169E-01    0.123E+00
RMM:   5    -0.410636975798E+03    0.12302E-01   -0.63217E-03  5230   0.921E-02    0.364E-01
RMM:   6    -0.410637469529E+03   -0.49373E-03   -0.83438E-04  4960   0.453E-02    0.441E-01
RMM:   7    -0.410636314367E+03    0.11552E-02   -0.26249E-03  5226   0.534E-02    0.108E-01
RMM:   8    -0.410637428639E+03   -0.11143E-02   -0.47597E-04  5015   0.292E-02    0.345E-01
RMM:   9    -0.410636865396E+03    0.56324E-03   -0.12782E-04  5546   0.147E-02    0.267E-01
RMM:  10    -0.410636108597E+03    0.75680E-03   -0.32689E-04  5349   0.174E-02    0.474E-02
RMM:  11    -0.410636184646E+03   -0.76050E-04   -0.78286E-05  5333   0.103E-02    0.933E-02
RMM:  12    -0.410636096670E+03    0.87977E-04   -0.13517E-05  4996   0.493E-03    0.324E-02
RMM:  13    -0.410636115769E+03   -0.19100E-04   -0.87523E-06  5238   0.312E-03    0.506E-02
RMM:  14    -0.410636092616E+03    0.23153E-04   -0.58783E-06  5227   0.233E-03    0.121E-02
RMM:  15    -0.410636092437E+03    0.17962E-06   -0.81378E-07  5292   0.125E-03    0.258E-03
RMM:  16    -0.410636093475E+03   -0.10380E-05   -0.33258E-07  5006   0.702E-04    0.419E-03
RMM:  17    -0.410636093997E+03   -0.52219E-06   -0.12779E-07  4609   0.380E-04    0.113E-03
RMM:  18    -0.410636094557E+03   -0.55969E-06   -0.26522E-08  3405   0.193E-04    0.741E-04
RMM:  19    -0.410636095064E+03   -0.50771E-06   -0.27944E-08  3411   0.150E-04    0.241E-04
RMM:  20    -0.410636095413E+03   -0.34883E-06   -0.20114E-08  2938   0.119E-04    0.363E-04
RMM:  21    -0.410636095636E+03   -0.22318E-06   -0.13585E-08  2633   0.101E-04    0.328E-04
RMM:  22    -0.410636095690E+03   -0.53671E-07   -0.43553E-09  2319   0.719E-05    0.340E-05
RMM:  23    -0.410636095737E+03   -0.47290E-07   -0.38770E-09  2259   0.646E-05    0.442E-05
RMM:  24    -0.410636095749E+03   -0.11649E-07   -0.11022E-09  1771   0.491E-05    0.546E-05
RMM:  25    -0.410636095761E+03   -0.11580E-07   -0.62577E-10  1520   0.439E-05    0.155E-05
RMM:  26    -0.410636095765E+03   -0.45402E-08   -0.38782E-10  1406   0.420E-05
 143 F= -.41063610E+03 E0= -.41061820E+03  d E =-.644975E-01
       N       E                     dE             d eps       ncg     rms          rms(c)
DAV:   1    -0.410655318111E+03   -0.19222E-01   -0.28599E+00  5072   0.214E+00    0.145E+00
RMM:   2    -0.411438239446E+03   -0.78292E+00   -0.28358E-01  4962   0.708E-01    0.439E+00
RMM:   3    -0.410680220619E+03    0.75802E+00   -0.86744E-02  4960   0.401E-01    0.986E-01
RMM:   4    -0.410673649064E+03    0.65716E-02   -0.10084E-02  5079   0.173E-01    0.102E+00
RMM:   5    -0.410665240258E+03    0.84088E-02   -0.55151E-03  5253   0.898E-02    0.341E-01
RMM:   6    -0.410665870695E+03   -0.63044E-03   -0.74448E-04  4968   0.433E-02    0.420E-01
RMM:   7    -0.410667154657E+03   -0.12840E-02   -0.15799E-03  5123   0.421E-02    0.501E-01
RMM:   8    -0.410666020341E+03    0.11343E-02   -0.13730E-03  5201   0.386E-02    0.333E-01
RMM:   9    -0.410665615447E+03    0.40489E-03   -0.19091E-04  5267   0.196E-02    0.282E-01
RMM:  10    -0.410664798908E+03    0.81654E-03   -0.48017E-04  5375   0.212E-02    0.100E-01
RMM:  11    -0.410664701826E+03    0.97082E-04   -0.55041E-05  5484   0.101E-02    0.298E-02
RMM:  12    -0.410664693419E+03    0.84068E-05   -0.73541E-06  5109   0.416E-03    0.218E-02
RMM:  13    -0.410664705265E+03   -0.11846E-04   -0.89659E-06  5014   0.316E-03    0.373E-02
RMM:  14    -0.410664693653E+03    0.11613E-04   -0.53906E-06  5351   0.232E-03    0.108E-02
RMM:  15    -0.410664693826E+03   -0.17316E-06   -0.84815E-07  5386   0.119E-03    0.587E-03
RMM:  16    -0.410664694804E+03   -0.97841E-06   -0.34576E-07  4869   0.702E-04    0.155E-03
RMM:  17    -0.410664695578E+03   -0.77370E-06   -0.10994E-07  4574   0.377E-04    0.583E-04
RMM:  18    -0.410664696286E+03   -0.70749E-06   -0.34462E-08  3562   0.208E-04    0.773E-04
RMM:  19    -0.410664697051E+03   -0.76536E-06   -0.37060E-08  3594   0.174E-04    0.618E-04
RMM:  20    -0.410664697430E+03   -0.37916E-06   -0.17682E-08  2891   0.120E-04    0.115E-04
RMM:  21    -0.410664697763E+03   -0.33330E-06   -0.17231E-08  2993   0.111E-04    0.104E-04
RMM:  22    -0.410664697836E+03   -0.72392E-07   -0.38573E-09  2209   0.687E-05    0.396E-05
RMM:  23    -0.410664697916E+03   -0.80370E-07   -0.48573E-09  2242   0.668E-05    0.334E-05
RMM:  24    -0.410664697934E+03   -0.17400E-07   -0.14300E-09  1833   0.501E-05    0.409E-05
RMM:  25    -0.410664697950E+03   -0.16495E-07   -0.10985E-09  1699   0.468E-05    0.154E-05
RMM:  26    -0.410664697953E+03   -0.26848E-08   -0.49042E-10  1464   0.422E-05
 144 F= -.41066470E+03 E0= -.41064745E+03  d E =-.286022E-01
       N       E                     dE             d eps       ncg     rms          rms(c)
DAV:   1    -0.410608283251E+03    0.56415E-01   -0.25901E+01  4976   0.642E+00    0.479E+00
RMM:   2    -0.411845331270E+03   -0.12370E+01   -0.16526E+00  4980   0.192E+00    0.459E+00
RMM:   3    -0.411113049487E+03    0.73228E+00   -0.76158E-01  4992   0.112E+00    0.257E+00
RMM:   4    -0.410801262905E+03    0.31179E+00   -0.10078E-01  5040   0.525E-01    0.176E+00
RMM:   5    -0.410731033064E+03    0.70230E-01   -0.34146E-02  5053   0.254E-01    0.140E+00
RMM:   6    -0.410725374284E+03    0.56588E-02   -0.13994E-02  5793   0.134E-01    0.129E+00
RMM:   7    -0.410729432300E+03   -0.40580E-02   -0.80991E-03  5022   0.981E-02    0.123E+00
RMM:   8    -0.410771733714E+03   -0.42301E-01   -0.31259E-02  5981   0.157E-01    0.108E+00
RMM:   9    -0.410724412933E+03    0.47321E-01   -0.55300E-03  5018   0.807E-02    0.516E-01
RMM:  10    -0.410726933075E+03   -0.25201E-02   -0.48749E-03  5309   0.585E-02    0.779E-01
RMM:  11    -0.410728578842E+03   -0.16458E-02   -0.15122E-03  5502   0.413E-02    0.885E-01
RMM:  12    -0.410723940800E+03    0.46380E-02   -0.25158E-03  5366   0.431E-02    0.540E-01
RMM:  13    -0.410720320712E+03    0.36201E-02   -0.16624E-04  4965   0.206E-02    0.223E-01
RMM:  14    -0.410719798877E+03    0.52184E-03   -0.17997E-04  4989   0.143E-02    0.109E-01
RMM:  15    -0.410719686975E+03    0.11190E-03   -0.83331E-05  5649   0.988E-03    0.435E-02
RMM:  16    -0.410719682685E+03    0.42897E-05   -0.21925E-05  5606   0.544E-03    0.232E-02
RMM:  17    -0.410719690588E+03   -0.79031E-05   -0.42634E-06  5802   0.251E-03    0.210E-02
RMM:  18    -0.410719694721E+03   -0.41325E-05   -0.15984E-06  5434   0.145E-03    0.138E-02
RMM:  19    -0.410719697406E+03   -0.26856E-05   -0.15278E-06  5178   0.119E-03    0.178E-03
RMM:  20    -0.410719701281E+03   -0.38749E-05   -0.32882E-07  4767   0.698E-04    0.919E-04
RMM:  21    -0.410719703459E+03   -0.21776E-05   -0.17999E-07  4426   0.420E-04    0.606E-04
RMM:  22    -0.410719705027E+03   -0.15681E-05   -0.91245E-08  4069   0.274E-04    0.884E-04
RMM:  23    -0.410719705808E+03   -0.78104E-06   -0.35473E-08  3610   0.174E-04    0.543E-04
RMM:  24    -0.410719706582E+03   -0.77409E-06   -0.50931E-08  3685   0.172E-04    0.254E-04
RMM:  25    -0.410719706708E+03   -0.12570E-06   -0.62809E-09  2512   0.885E-05    0.115E-04
RMM:  26    -0.410719706859E+03   -0.15071E-06   -0.92074E-09  2417   0.846E-05    0.262E-04
RMM:  27    -0.410719706879E+03   -0.20507E-07   -0.20676E-09  2066   0.564E-05    0.548E-05
RMM:  28    -0.410719706901E+03   -0.21904E-07   -0.12002E-09  1769   0.481E-05    0.595E-05
RMM:  29    -0.410719706907E+03   -0.62500E-08   -0.45879E-10  1456   0.424E-05
 145 F= -.41071971E+03 E0= -.41070396E+03  d E =-.836111E-01
       N       E                     dE             d eps       ncg     rms          rms(c)
DAV:   1    -0.410152841318E+03    0.56687E+00   -0.10299E+02  5064   0.128E+01    0.145E+01
RMM:   2    -0.411292281856E+03   -0.11394E+01   -0.58059E+00  4977   0.366E+00    0.470E+00
RMM:   3    -0.415019112181E+03   -0.37268E+01   -0.38071E+00  5040   0.231E+00    0.175E+01
RMM:   4    -0.411396329713E+03    0.36228E+01   -0.54483E-01  5059   0.115E+00    0.584E+00
RMM:   5    -0.410965113170E+03    0.43122E+00   -0.32494E-01  5031   0.642E-01    0.467E+00
RMM:   6    -0.410707172079E+03    0.25794E+00   -0.35474E-01  5337   0.508E-01    0.341E+00
RMM:   7    -0.410705648184E+03    0.15239E-02   -0.58050E-02  5786   0.261E-01    0.322E+00
RMM:   8    -0.410691736975E+03    0.13911E-01   -0.16419E-02  4973   0.152E-01    0.212E+00
RMM:   9    -0.410933102729E+03   -0.24137E+00   -0.55917E-02  5343   0.237E-01    0.363E+00
RMM:  10    -0.410760622399E+03    0.17248E+00   -0.10613E-02  4992   0.140E-01    0.229E+00
RMM:  11    -0.410697793332E+03    0.62829E-01   -0.60376E-03  5021   0.907E-02    0.815E-01
RMM:  12    -0.410695093588E+03    0.26997E-02   -0.53924E-03  5329   0.753E-02    0.603E-01
RMM:  13    -0.410701726872E+03   -0.66333E-02   -0.24155E-03  5295   0.525E-02    0.734E-01
RMM:  14    -0.410717573388E+03   -0.15847E-01   -0.22926E-03  5302   0.459E-02    0.812E-01
RMM:  15    -0.410714556429E+03    0.30170E-02   -0.54129E-04  5468   0.289E-02    0.782E-01
RMM:  16    -0.410695869982E+03    0.18686E-01   -0.12816E-03  5568   0.336E-02    0.533E-01
RMM:  17    -0.410690519588E+03    0.53504E-02   -0.50926E-04  5326   0.210E-02    0.269E-01
RMM:  18    -0.410690125913E+03    0.39367E-03   -0.10760E-04  6150   0.115E-02    0.242E-01
RMM:  19    -0.410690180229E+03   -0.54315E-04   -0.24182E-05  5162   0.529E-03    0.252E-01
RMM:  20    -0.410688822217E+03    0.13580E-02   -0.33003E-04  6711   0.159E-02    0.138E-01
RMM:  21    -0.410688767868E+03    0.54349E-04   -0.17362E-05  5170   0.532E-03    0.127E-01
RMM:  22    -0.410688681430E+03    0.86438E-04   -0.66764E-05  5911   0.673E-03    0.130E-01
RMM:  23    -0.410688421445E+03    0.25998E-03   -0.34531E-05  5862   0.521E-03    0.101E-01
RMM:  24    -0.410688113077E+03    0.30837E-03   -0.13811E-04  7123   0.947E-03    0.718E-02
RMM:  25    -0.410687959080E+03    0.15400E-03   -0.11413E-04  6745   0.884E-03    0.588E-02
RMM:  26    -0.410687862630E+03    0.96450E-04   -0.45343E-05  6135   0.587E-03    0.394E-02
RMM:  27    -0.410687797321E+03    0.65309E-04   -0.80180E-05  6709   0.747E-03    0.320E-02
RMM:  28    -0.410687781965E+03    0.15356E-04   -0.16578E-05  5795   0.383E-03    0.221E-02
RMM:  29    -0.410687778182E+03    0.37831E-05   -0.23492E-06  5121   0.199E-03    0.582E-03
RMM:  30    -0.410687778655E+03   -0.47350E-06   -0.25891E-06  5322   0.161E-03    0.160E-03
RMM:  31    -0.410687782404E+03   -0.37487E-05   -0.42950E-07  5186   0.882E-04    0.607E-03
RMM:  32    -0.410687783796E+03   -0.13927E-05   -0.20970E-07  4582   0.511E-04    0.126E-03
RMM:  33    -0.410687785735E+03   -0.19386E-05   -0.15672E-07  4363   0.402E-04    0.229E-03
RMM:  34    -0.410687786314E+03   -0.57845E-06   -0.89777E-08  4283   0.310E-04    0.125E-03
RMM:  35    -0.410687786841E+03   -0.52788E-06   -0.62767E-08  4092   0.244E-04    0.121E-03
RMM:  36    -0.410687787250E+03   -0.40828E-06   -0.78772E-08  4213   0.238E-04    0.179E-03
RMM:  37    -0.410687787450E+03   -0.20005E-06   -0.37902E-08  3889   0.185E-04    0.281E-04
RMM:  38    -0.410687787529E+03   -0.79141E-07   -0.56070E-09  2769   0.970E-05    0.200E-04
RMM:  39    -0.410687787625E+03   -0.96014E-07   -0.77124E-09  2585   0.852E-05    0.263E-04
RMM:  40    -0.410687787662E+03   -0.36802E-07   -0.31324E-09  2243   0.640E-05    0.145E-04
RMM:  41    -0.410687787690E+03   -0.28194E-07   -0.18619E-09  2000   0.537E-05    0.141E-04
RMM:  42    -0.410687787700E+03   -0.98225E-08   -0.63951E-10  1503   0.436E-05
 146 F= -.41068779E+03 E0= -.41067320E+03  d E =-.516919E-01
       N       E                     dE             d eps       ncg     rms          rms(c)
DAV:   1    -0.410555512413E+03    0.13228E+00   -0.46065E+01  5008   0.851E+00    0.680E+00
RMM:   2    -0.414083078810E+03   -0.35276E+01   -0.45262E+00  4981   0.288E+00    0.166E+01
RMM:   3    -0.411167026059E+03    0.29161E+01   -0.93123E-01  4985   0.145E+00    0.294E+00
RMM:   4    -0.410794232690E+03    0.37279E+00   -0.40120E-01  5054   0.787E-01    0.229E+00
RMM:   5    -0.410981299319E+03   -0.18707E+00   -0.24830E-01  5366   0.493E-01    0.369E+00
RMM:   6    -0.410792057217E+03    0.18924E+00   -0.45255E-02  5027   0.253E-01    0.204E+00
RMM:   7    -0.410745340701E+03    0.46717E-01   -0.13939E-02  5088   0.140E-01    0.148E+00
RMM:   8    -0.410743405259E+03    0.19354E-02   -0.15644E-02  5121   0.122E-01    0.122E+00
RMM:   9    -0.410737312179E+03    0.60931E-02   -0.11627E-02  5248   0.112E-01    0.828E-01
RMM:  10    -0.410737109116E+03    0.20306E-03   -0.94242E-03  5209   0.985E-02    0.718E-01
RMM:  11    -0.410765228919E+03   -0.28120E-01   -0.46368E-03  5238   0.699E-02    0.170E+00
RMM:  12    -0.410735876559E+03    0.29352E-01   -0.66446E-03  5535   0.730E-02    0.568E-01
RMM:  13    -0.410733940659E+03    0.19359E-02   -0.16507E-03  5038   0.472E-02    0.488E-01
RMM:  14    -0.410731066394E+03    0.28743E-02   -0.57725E-04  5482   0.263E-02    0.248E-01
RMM:  15    -0.410730425948E+03    0.64045E-03   -0.15030E-04  5491   0.129E-02    0.138E-01
RMM:  16    -0.410730264972E+03    0.16098E-03   -0.69664E-05  5186   0.907E-03    0.909E-02
RMM:  17    -0.410730231584E+03    0.33388E-04   -0.28761E-05  5850   0.562E-03    0.744E-02
RMM:  18    -0.410730168815E+03    0.62769E-04   -0.10615E-05  5510   0.336E-03    0.258E-02
RMM:  19    -0.410730168822E+03   -0.73851E-08   -0.48989E-06  5116   0.240E-03    0.842E-03
RMM:  20    -0.410730172041E+03   -0.32183E-05   -0.19121E-06  5966   0.145E-03    0.292E-03
RMM:  21    -0.410730176291E+03   -0.42499E-05   -0.42901E-07  5031   0.782E-04    0.371E-03
RMM:  22    -0.410730179246E+03   -0.29556E-05   -0.29734E-07  4354   0.509E-04    0.196E-03
RMM:  23    -0.410730181450E+03   -0.22034E-05   -0.20350E-07  4450   0.385E-04    0.485E-04
RMM:  24    -0.410730182829E+03   -0.13789E-05   -0.58114E-08  3912   0.243E-04    0.637E-04
RMM:  25    -0.410730183930E+03   -0.11018E-05   -0.68990E-08  3922   0.211E-04    0.437E-04
RMM:  26    -0.410730184345E+03   -0.41437E-06   -0.19651E-08  3032   0.130E-04    0.166E-04
RMM:  27    -0.410730184649E+03   -0.30467E-06   -0.21157E-08  2963   0.121E-04    0.275E-04
RMM:  28    -0.410730184714E+03   -0.64596E-07   -0.41316E-09  2398   0.755E-05    0.682E-05
RMM:  29    -0.410730184764E+03   -0.49535E-07   -0.40097E-09  2287   0.640E-05    0.343E-05
RMM:  30    -0.410730184776E+03   -0.12729E-07   -0.10764E-09  1744   0.486E-05    0.382E-05
RMM:  31    -0.410730184786E+03   -0.93896E-08   -0.74568E-10  1558   0.452E-05
 147 F= -.41073018E+03 E0= -.41071506E+03  d E =-.940890E-01
       N       E                     dE             d eps       ncg     rms          rms(c)
DAV:   1    -0.410741558593E+03   -0.11374E-01   -0.88302E+00  5048   0.380E+00    0.266E+00
RMM:   2    -0.411668993178E+03   -0.92743E+00   -0.67414E-01  4967   0.119E+00    0.446E+00
RMM:   3    -0.410883600459E+03    0.78539E+00   -0.24037E-01  4978   0.665E-01    0.117E+00
RMM:   4    -0.410804154429E+03    0.79446E-01   -0.24252E-02  5043   0.286E-01    0.102E+00
RMM:   5    -0.410784633554E+03    0.19521E-01   -0.11013E-02  5060   0.150E-01    0.102E+00
RMM:   6    -0.410821926359E+03   -0.37293E-01   -0.62383E-03  5048   0.882E-02    0.199E+00
RMM:   7    -0.410792478776E+03    0.29448E-01   -0.12764E-02  5516   0.982E-02    0.838E-01
RMM:   8    -0.410780092904E+03    0.12386E-01   -0.20663E-03  4960   0.617E-02    0.559E-01
