unknown system                          
           1
     0.000000   19.854332    0.000000
    -6.225936   19.854332    0.000000
     0.000000    0.000000   27.345403
   P    Li   S 
    12    36    48
Direct configuration=     1
   0.27236845  0.00060874  0.28135670
   0.27236845  0.00060874  0.56560124
   0.60570179  0.00060874  0.28135670
   0.60570179  0.00060874  0.56560124
   0.22641371  0.50060905  0.42347891
   0.93903512  0.00060874  0.28135670
   0.22641371  0.50060905  0.70772345
   0.93903512  0.00060874  0.56560124
   0.55974704  0.50060905  0.42347891
   0.55974704  0.50060905  0.70772345
   0.89308038  0.50060905  0.42347891
   0.89308038  0.50060905  0.70772345
   0.06099470  0.49994891  0.49273991
   0.06099470  0.49994891  0.35421791
   0.06099470  0.49994891  0.77698445
   0.06099470  0.49994891  0.63846245
   0.39432803  0.49994891  0.49273991
   0.39432803  0.49994891  0.35421791
   0.22234691  0.49213804  0.28135670
   0.39432803  0.49994891  0.77698445
   0.39432803  0.49994891  0.63846245
   0.22234691  0.49213804  0.56560124
   0.72766136  0.49994891  0.49273991
   0.72766136  0.49994891  0.35421791
   0.10577442  0.99994860  0.49634015
   0.10577442  0.99994860  0.35061767
   0.29337828  0.99213674  0.42347891
   0.55568024  0.49213804  0.28135670
   0.72766136  0.49994891  0.77698445
   0.72766136  0.49994891  0.63846245
   0.10577442  0.99994860  0.78058469
   0.10577442  0.99994860  0.63486221
   0.29337828  0.99213674  0.70772345
   0.55568024  0.49213804  0.56560124
   0.43910775  0.99994860  0.49634015
   0.43910775  0.99994860  0.35061767
   0.62671161  0.99213674  0.42347891
   0.88901358  0.49213804  0.28135670
   0.43910775  0.99994860  0.78058469
   0.43910775  0.99994860  0.63486221
   0.62671161  0.99213674  0.70772345
   0.88901358  0.49213804  0.56560124
   0.77244109  0.99994860  0.49634015
   0.77244109  0.99994860  0.35061767
   0.96004494  0.99213674  0.42347891
   0.77244109  0.99994860  0.78058469
   0.77244109  0.99994860  0.63486221
   0.96004494  0.99213674  0.70772345
   0.05082746  0.39119097  0.48542022
   0.05082746  0.39119097  0.36153761
   0.23749024  0.39155236  0.42347891
   0.27110772  0.33182319  0.28135670
   0.05082746  0.39119097  0.76966476
   0.05082746  0.39119097  0.64578215
   0.23749024  0.39155236  0.70772345
   0.27110772  0.33182319  0.56560124
   0.38416079  0.39119097  0.48542022
   0.38416079  0.39119097  0.36153761
   0.00012519  0.89118967  0.21941531
   0.00012519  0.89118967  0.34329798
   0.57082357  0.39155236  0.42347891
   0.60444106  0.33182319  0.28135670
   0.38416079  0.39119097  0.76966476
   0.38416079  0.39119097  0.64578215
   0.00012519  0.89118967  0.50365985
   0.00012519  0.89118967  0.62754252
   0.57082357  0.39155236  0.70772345
   0.60444106  0.33182319  0.56560124
   0.71749413  0.39119097  0.48542022
   0.71749413  0.39119097  0.36153761
   0.33345853  0.89118967  0.21941531
   0.33345853  0.89118967  0.34329798
   0.90415690  0.39155236  0.42347891
   0.14607136  0.89155267  0.28135670
   0.23191382  0.83182189  0.42347891
   0.93777439  0.33182319  0.28135670
   0.71749413  0.39119097  0.76966476
   0.71749413  0.39119097  0.64578215
   0.33345853  0.89118967  0.50365985
   0.33345853  0.89118967  0.62754252
   0.90415690  0.39155236  0.70772345
   0.14607136  0.89155267  0.56560124
   0.23191382  0.83182189  0.70772345
   0.93777439  0.33182319  0.56560124
   0.66679186  0.89118967  0.21941531
   0.66679186  0.89118967  0.34329798
   0.47940470  0.89155267  0.28135670
   0.56524715  0.83182189  0.42347891
   0.66679186  0.89118967  0.50365985
   0.66679186  0.89118967  0.62754252
   0.47940470  0.89155267  0.56560124
   0.56524715  0.83182189  0.70772345
   0.81273803  0.89155267  0.28135670
   0.89858049  0.83182189  0.42347891
   0.81273803  0.89155267  0.56560124
   0.89858049  0.83182189  0.70772345
Direct configuration=     2
   0.27402881 -0.00114433  0.27992963
   0.27230841  0.00067742  0.56455291
   0.60737318 -0.00115260  0.27993413
   0.60566608  0.00067035  0.56455224
   0.22596911  0.50100314  0.42254428
   0.94072436 -0.00116765  0.27993538
   0.23080697  0.49759979  0.70694406
   0.93901644  0.00064053  0.56454414
   0.55928464  0.50099878  0.42253790
   0.56414124  0.49760830  0.70693314
   0.89262219  0.50099657  0.42254930
   0.89742109  0.49765880  0.70694639
   0.06118318  0.49969984  0.49240115
   0.06058562  0.50037230  0.35388402
   0.06102616  0.49958647  0.77644549
   0.06064115  0.50025669  0.63810640
   0.39451723  0.49970102  0.49240098
   0.39392212  0.50036986  0.35388580
   0.22125516  0.49280489  0.28151334
   0.39435982  0.49958625  0.77644497
   0.39397530  0.50025639  0.63810638
   0.22246277  0.49206829  0.56516861
   0.72785087  0.49969803  0.49240175
   0.72724702  0.50037683  0.35388475
   0.10544833  0.00020902  0.49599431
   0.10616814  0.99968222  0.35025932
   0.29343165  0.99205792  0.42301439
   0.55458827  0.49280641  0.28151325
   0.72769622  0.49958546  0.77644477
   0.72730491  0.50025957  0.63810767
   0.10517894  0.00050796  0.77998645
   0.10581302  0.99996262  0.63452291
   0.29331623  0.99232121  0.70686579
   0.55580173  0.49206378  0.56516948
   0.43878163  0.00020891  0.49599482
   0.43950209  0.99968225  0.35025633
   0.62676841  0.99205398  0.42301548
   0.88792195  0.49280784  0.28151479
   0.43851603  0.00050420  0.77998636
   0.43914396  0.99996613  0.63452585
   0.62665097  0.99232009  0.70686641
   0.88913388  0.49206430  0.56516780
   0.77212092  0.00020436  0.49599465
   0.77283022  0.99968771  0.35025898
   0.96010228  0.99205507  0.42301550
   0.77184756  0.00050571  0.77998650
   0.77247354  0.99996982  0.63452372
   0.95998817  0.99231502  0.70686657
   0.05158789  0.39066074  0.48608514
   0.05033383  0.39151686  0.36210421
   0.23772289  0.39137866  0.42383482
   0.27198304  0.33100028  0.28086148
   0.05298489  0.38947402  0.77063449
   0.04954267  0.39211168  0.64606942
   0.23790592  0.39025519  0.70866416
   0.27092821  0.33200996  0.56601850
   0.38493775  0.39065950  0.48609168
   0.38365812  0.39152510  0.36210277
  -0.00134698  0.89376422  0.22102043
   0.00043468  0.89031372  0.34426313
   0.57103086  0.39140546  0.42382754
   0.60533633  0.33097260  0.28085900
   0.38634413  0.38944453  0.77062888
   0.38287476  0.39211229  0.64607572
  -0.00018359  0.89173479  0.50430269
   0.00044604  0.89063811  0.62836896
   0.57123870  0.39025095  0.70865986
   0.60426619  0.33200922  0.56601379
   0.71825058  0.39067911  0.48607898
   0.71702223  0.39148873  0.36209965
   0.33197923  0.89376626  0.22101844
   0.33376544  0.89032571  0.34424804
   0.90437168  0.39139699  0.42382980
   0.14536086  0.89210024  0.28101353
   0.23190141  0.83181930  0.42389992
   0.93864409  0.33098908  0.28085642
   0.71966619  0.38945114  0.77062142
   0.71620657  0.39210902  0.64607670
   0.33313787  0.89173485  0.50430103
   0.33381830  0.89059960  0.62837581
   0.90457718  0.39025271  0.70865087
   0.14620426  0.89140145  0.56599370
   0.22761049  0.83578499  0.70853970
   0.93761896  0.33198609  0.56601634
   0.66531499  0.89375952  0.22101327
   0.66709658  0.89033352  0.34426260
   0.47870809  0.89210337  0.28100576
   0.56523793  0.83182003  0.42389738
   0.66649341  0.89170453  0.50429570
   0.66713190  0.89062467  0.62837170
   0.47949707  0.89143335  0.56599440
   0.56092888  0.83579013  0.70854401
   0.81203323  0.89210354  0.28101168
   0.89857445  0.83181194  0.42389293
   0.81287102  0.89139180  0.56598846
   0.89423697  0.83582681  0.70852903
Direct configuration=     3
   0.27402267 -0.00113785  0.27993491
   0.27230863  0.00067717  0.56455679
   0.60736700 -0.00114609  0.27993939
   0.60566621  0.00067012  0.56455612
   0.22597076  0.50100168  0.42254774
   0.94071811 -0.00116109  0.27994063
   0.23079073  0.49761091  0.70694694
   0.93901651  0.00064041  0.56454805
   0.55928635  0.50099734  0.42254138
   0.56412500  0.49761940  0.70693606
   0.89262388  0.50099513  0.42255273
   0.89740504  0.49766971  0.70694926
   0.06118248  0.49970076  0.49240241
   0.06058713  0.50037074  0.35388525
   0.06102604  0.49958781  0.77644748
   0.06064246  0.50025556  0.63810772
   0.39451653  0.49970194  0.49240223
   0.39392362  0.50036831  0.35388703
   0.22125920  0.49280242  0.28151277
   0.39435970  0.49958759  0.77644697
   0.39397661  0.50025525  0.63810769
   0.22246234  0.49206855  0.56517021
   0.72785017  0.49969895  0.49240300
   0.72724855  0.50037524  0.35388598
   0.10544953  0.00020806  0.49599559
   0.10616668  0.99968320  0.35026064
   0.29343145  0.99205821  0.42301611
   0.55459231  0.49280394  0.28151267
   0.72769609  0.49958681  0.77644676
   0.72730623  0.50025842  0.63810898
   0.10518114  0.00050589  0.77998866
   0.10581288  0.99996256  0.63452417
   0.29331646  0.99232053  0.70686896
   0.55580128  0.49206405  0.56517108
   0.43878284  0.00020795  0.49599609
   0.43950063  0.99968324  0.35025766
   0.62676820  0.99205428  0.42301720
   0.88792598  0.49280537  0.28151420
   0.43851822  0.00050215  0.77998857
   0.43914382  0.99996607  0.63452709
   0.62665119  0.99231942  0.70686958
   0.88913343  0.49206457  0.56516940
   0.77212210  0.00020341  0.49599592
   0.77282878  0.99968868  0.35026031
   0.96010206  0.99205537  0.42301721
   0.77184976  0.00050365  0.77998871
   0.77247342  0.99996974  0.63452497
   0.95998838  0.99231436  0.70686974
   0.05158508  0.39066270  0.48608268
   0.05033566  0.39151566  0.36210212
   0.23772203  0.39137930  0.42383350
   0.27197981  0.33100333  0.28086331
   0.05297692  0.38948036  0.77063090
   0.04954742  0.39210828  0.64606835
   0.23790438  0.39025998  0.70866069
   0.27092887  0.33200927  0.56601695
   0.38493488  0.39066146  0.48608920
   0.38365998  0.39152387  0.36210068
  -0.00134154  0.89375470  0.22101449
   0.00043353  0.89031696  0.34425956
   0.57103010  0.39140600  0.42382626
   0.60533302  0.33097575  0.28086084
   0.38633606  0.38945099  0.77062531
   0.38287952  0.39210889  0.64607464
  -0.00018245  0.89173277  0.50430032
   0.00044486  0.89064015  0.62836590
   0.57123717  0.39025576  0.70865640
   0.60426683  0.33200854  0.56601227
   0.71824778  0.39068101  0.48607655
   0.71702398  0.39148763  0.36209758
   0.33198470  0.89375674  0.22101251
   0.33376431  0.89032891  0.34424453
   0.90437088  0.39139756  0.42382850
   0.14536349  0.89209821  0.28101480
   0.23190146  0.83181931  0.42389836
   0.93864088  0.33099217  0.28085827
   0.71965816  0.38945757  0.77061788
   0.71621133  0.39210563  0.64607561
   0.33313905  0.89173284  0.50429866
   0.33381697  0.89060178  0.62837273
   0.90457563  0.39025752  0.70864744
   0.14620377  0.89140201  0.56599225
   0.22762640  0.83577034  0.70853668
   0.93761953  0.33198549  0.56601480
   0.66532045  0.89375002  0.22100736
   0.66709545  0.89033669  0.34425904
   0.47871066  0.89210133  0.28100706
   0.56523797  0.83182004  0.42389583
   0.66649451  0.89170262  0.50429335
   0.66713065  0.89062675  0.62836864
   0.47949673  0.89143379  0.56599295
   0.56094484  0.83577546  0.70854098
   0.81203583  0.89210151  0.28101296
   0.89857447  0.83181198  0.42389140
   0.81287052  0.89139239  0.56598703
   0.89425303  0.83581201  0.70852605
Direct configuration=     4
   0.27462235 -0.00135118  0.28055969
   0.27216482  0.00088614  0.56482165
   0.60794112 -0.00134103  0.28056512
   0.60546257  0.00090224  0.56481319
   0.22551675  0.50137043  0.42274134
   0.94128139 -0.00134855  0.28056394
   0.23126195  0.49732744  0.70744145
   0.93883152  0.00088615  0.56481455
   0.55884550  0.50136473  0.42273264
   0.56460785  0.49731087  0.70744867
   0.89215691  0.50138528  0.42274294
   0.89792802  0.49733351  0.70744222
   0.06155946  0.49922222  0.49203647
   0.06008149  0.50095742  0.35346287
   0.06119931  0.49894333  0.77576739
   0.06022179  0.50072397  0.63776977
   0.39489821  0.49921955  0.49203529
   0.39341796  0.50095597  0.35346389
   0.21973342  0.49375963  0.28169786
   0.39453696  0.49893996  0.77576343
   0.39355699  0.50072171  0.63776965
   0.22251507  0.49203449  0.56451218
   0.72823006  0.49921580  0.49203608
   0.72673409  0.50096773  0.35346282
   0.10484612  0.00069494  0.49563016
   0.10695198  0.99905125  0.34982909
   0.29353289  0.99190464  0.42232891
   0.55306639  0.49376221  0.28169644
   0.72787305  0.49894153  0.77576310
   0.72688813  0.50072508  0.63777115
   0.10418181  0.00145183  0.77924480
   0.10619378  0.99967575  0.63420735
   0.29307881  0.99272372  0.70565746
   0.55585702  0.49202819  0.56451447
   0.43818612  0.00068877  0.49563182
   0.44028285  0.99905629  0.34982445
   0.62687018  0.99189944  0.42233225
   0.88640469  0.49376117  0.28170051
   0.43751165  0.00145479  0.77924464
   0.43952324  0.99968265  0.63421363
   0.62641789  0.99271970  0.70565725
   0.88918648  0.49203050  0.56451288
   0.77153083  0.00068029  0.49563020
   0.77360662  0.99906732  0.34982796
   0.96020355  0.99190131  0.42232982
   0.77084704  0.00145106  0.77924447
   0.77284815  0.99968936  0.63420860
   0.95975832  0.99270894  0.70565707
   0.05128036  0.39091807  0.48635759
   0.05097905  0.39100468  0.36223066
   0.23804005  0.39113408  0.42414859
   0.27297512  0.33008076  0.28028689
   0.05497216  0.38791863  0.77142987
   0.04980399  0.39196311  0.64568252
   0.23877492  0.38925126  0.70970740
   0.27084857  0.33212845  0.56638151
   0.38461033  0.39094712  0.48635751
   0.38432343  0.39099741  0.36222462
  -0.00151303  0.89392578  0.22128571
   0.00003738  0.89063485  0.34480477
   0.57130969  0.39119159  0.42413452
   0.60633564  0.33004609  0.28028563
   0.38833728  0.38789266  0.77143518
   0.38316049  0.39194040  0.64568254
   0.00009182  0.89131041  0.50440137
   0.00021729  0.89094566  0.62873424
   0.57211207  0.38924407  0.70969485
   0.60419792  0.33210942  0.56637167
   0.71791653  0.39097594  0.48635147
   0.71769192  0.39095558  0.36221590
   0.33180848  0.89392578  0.22129326
   0.33337346  0.89063969  0.34478174
   0.90466130  0.39116822  0.42413606
   0.14515267  0.89241983  0.28063166
   0.23175036  0.83193606  0.42427273
   0.93963722  0.33005633  0.28027771
   0.72162685  0.38792748  0.77140686
   0.71648394  0.39194743  0.64568227
   0.33339151  0.89131383  0.50440621
   0.33358187  0.89092805  0.62874476
   0.90542648  0.38926587  0.70968924
   0.14631311  0.89126404  0.56634835
   0.22570811  0.83738791  0.70941776
   0.93755350  0.33207399  0.56638047
   0.66516194  0.89390924  0.22128660
   0.66671728  0.89063071  0.34481254
   0.47846908  0.89245300  0.28061793
   0.56511173  0.83192008  0.42426669
   0.66673420  0.89129549  0.50440639
   0.66689068  0.89096421  0.62873201
   0.47957771  0.89132256  0.56634968
   0.55898519  0.83743116  0.70942219
   0.81181106  0.89243312  0.28062723
   0.89843953  0.83191109  0.42425862
   0.81302097  0.89121492  0.56633623
   0.89235982  0.83739923  0.70939937
Direct configuration=     5
   0.27597559 -0.00183259  0.28196960
   0.27184030  0.00135772  0.56541936
   0.60923669 -0.00178094  0.28197714
   0.60500303  0.00142604  0.56539331
   0.22449223  0.50220257  0.42317824
   0.94255248 -0.00177158  0.28197050
   0.23232532  0.49668774  0.70855737
   0.93841406  0.00144068  0.56541593
   0.55785065  0.50219380  0.42316425
   0.56569746  0.49661464  0.70860546
   0.89110312  0.50226571  0.42317216
   0.89910819  0.49657484  0.70855465
   0.06241018  0.49814231  0.49121069
   0.05894044  0.50228135  0.35250970
   0.06159032  0.49748897  0.77423268
   0.05927249  0.50178099  0.63700713
   0.39575953  0.49813098  0.49120722
   0.39227687  0.50228211  0.35250901
   0.21629032  0.49591969  0.28211556
   0.39493697  0.49747850  0.77422095
   0.39261008  0.50177433  0.63700681
   0.22263407  0.49195764  0.56302725
   0.72908732  0.49812551  0.49120808
   0.72557313  0.50230475  0.35250791
   0.10348445  0.00179363  0.49480553
   0.10872411  0.99762517  0.34885524
   0.29376178  0.99155809  0.42077816
   0.54962295  0.49592466  0.28211113
   0.72827240  0.49748537  0.77422033
   0.72594465  0.50177817  0.63700880
   0.10192669  0.00358648  0.77756616
   0.10705333  0.99902853  0.63349242
   0.29254250  0.99363357  0.70292354
   0.55598279  0.49194726  0.56303276
   0.43683955  0.00177380  0.49480981
   0.44204802  0.99764150  0.34884686
   0.62710031  0.99155002  0.42078659
   0.88297168  0.49591807  0.28212093
   0.43524020  0.00360457  0.77756586
   0.44037946  0.99904308  0.63350626
   0.62589140  0.99362301  0.70292148
   0.88930617  0.49195361  0.56303136
   0.77019655  0.00175643  0.49480491
   0.77536193  0.99766516  0.34885232
   0.96043256  0.99155364  0.42077862
   0.76858430  0.00358901  0.77756497
   0.77369379  0.99905665  0.63349466
   0.95923918  0.99359935  0.70292053
   0.05059273  0.39149434  0.48697797
   0.05243093  0.38985158  0.36252073
   0.23875772  0.39058069  0.42485964
   0.27522118  0.32799888  0.27898612
   0.05947468  0.38439436  0.77323283
   0.05038297  0.39163552  0.64481185
   0.24073939  0.38697496  0.71206946
   0.27066735  0.33239740  0.56720417
   0.38387795  0.39159174  0.48696298
   0.38582058  0.38980940  0.36250430
  -0.00190004  0.89431185  0.22189774
  -0.00085659  0.89135222  0.34603509
   0.57194062  0.39070775  0.42483017
   0.60859819  0.32794819  0.27898760
   0.39285329  0.38437609  0.77326275
   0.38379454  0.39156018  0.64479773
   0.00071076  0.89035731  0.50462941
  -0.00029624  0.89163509  0.62956546
   0.57408640  0.38696105  0.71203825
   0.60404240  0.33233707  0.56718272
   0.71716902  0.39164151  0.48697188
   0.71919924  0.38975493  0.36248290
   0.33141084  0.89430725  0.22192682
   0.33249146  0.89134100  0.34599402
   0.90531665  0.39065069  0.42483010
   0.14467693  0.89314560  0.27976706
   0.23140938  0.83219952  0.42511754
   0.94188560  0.32794449  0.27896758
   0.72606944  0.38447463  0.77318728
   0.71709911  0.39159044  0.64479466
   0.33396123  0.89036829  0.50464890
   0.33305132  0.89166432  0.62958432
   0.90734654  0.38702811  0.71204019
   0.14655984  0.89095270  0.56715196
   0.22137924  0.84103817  0.71140603
   0.93740449  0.33227370  0.56720565
   0.66480424  0.89426854  0.22191674
   0.66586389  0.89129421  0.34606160
   0.47792391  0.89324659  0.27973982
   0.56482685  0.83214583  0.42510358
   0.66727507  0.89037674  0.50466147
   0.66634915  0.89172572  0.62955201
   0.47976047  0.89107156  0.56715470
   0.55456297  0.84116748  0.71141076
   0.81130384  0.89318146  0.27975679
   0.89813503  0.83213476  0.42508730
   0.81336048  0.89081441  0.56712425
   0.88808754  0.84098102  0.71137013
Direct configuration=     6
   0.27680039 -0.00337429  0.28221271
   0.27223447  0.00046022  0.56598282
   0.61016130 -0.00341618  0.28223601
   0.60563961  0.00045898  0.56598136
   0.22638260  0.50088662  0.42388146
   0.94354104 -0.00345603  0.28221907
   0.23349868  0.49584485  0.70897766
   0.93901731  0.00037895  0.56597006
   0.55972090  0.50086180  0.42387843
   0.56682831  0.49583207  0.70894122
   0.89301391  0.50086518  0.42390735
   0.90012527  0.49585178  0.70897301
   0.06289537  0.49743294  0.49097779
   0.05877815  0.50272723  0.35181996
   0.06165729  0.49624814  0.77336752
   0.05874553  0.50238063  0.63700098
   0.39623755  0.49743197  0.49096946
   0.39209614  0.50274006  0.35181837
   0.21382245  0.49757662  0.28247759
   0.39501379  0.49623000  0.77335037
   0.39209464  0.50235815  0.63699577
   0.22252695  0.49203133  0.56202992
   0.72956814  0.49742526  0.49097247
   0.72540220  0.50275357  0.35181803
   0.10222855  0.00295628  0.49465515
   0.11028230  0.99613939  0.34826592
   0.29393435  0.99134708  0.41978989
   0.54716160  0.49757579  0.28246976
   0.72833625  0.49625939  0.77334882
   0.72542417  0.50236678  0.63700389
   0.09868062  0.00692864  0.77679541
   0.10753248  0.99871992  0.63348208
   0.29143966  0.99529885  0.70081839
   0.55587969  0.49201528  0.56203886
   0.43559073  0.00292366  0.49465531
   0.44360734  0.99616000  0.34825660
   0.62727644  0.99133878  0.41979799
   0.88049658  0.49757768  0.28248196
   0.43198890  0.00695103  0.77679839
   0.44086723  0.99872612  0.63350552
   0.62478917  0.99529572  0.70081559
   0.88918956  0.49202438  0.56203716
   0.76897509  0.00288578  0.49465079
   0.77691352  0.99619045  0.34826090
   0.96060227  0.99134504  0.41978990
   0.76534970  0.00691420  0.77678769
   0.77417326  0.99873351  0.63347644
   0.95816171  0.99524216  0.70081197
   0.04956402  0.39233110  0.48692394
   0.05207867  0.39003028  0.36295768
   0.23927253  0.39007066  0.42487625
   0.27477268  0.32833790  0.27852606
   0.06202827  0.38269405  0.77420489
   0.04748932  0.39373940  0.64561921
   0.24316792  0.38520725  0.71295302
   0.27099731  0.33217012  0.56726914
   0.38289486  0.39238596  0.48690644
   0.38546108  0.38998623  0.36295642
  -0.00201633  0.89443112  0.22282253
  -0.00172979  0.89278101  0.34651212
   0.57247943  0.39021916  0.42483716
   0.60815164  0.32829229  0.27851391
   0.39539991  0.38268233  0.77422900
   0.38089348  0.39364676  0.64562473
   0.00045896  0.89080081  0.50527511
  -0.00068612  0.89214858  0.62956967
   0.57653947  0.38516182  0.71292863
   0.60435108  0.33212764  0.56725376
   0.71618210  0.39243326  0.48691720
   0.71882069  0.38994845  0.36293835
   0.33129614  0.89440367  0.22281351
   0.33166157  0.89271190  0.34648595
   0.90580185  0.39021824  0.42483372
   0.14606540  0.89267292  0.27949284
   0.23104366  0.83241542  0.42506285
   0.94147208  0.32826057  0.27850577
   0.72869656  0.38271253  0.77417735
   0.71418064  0.39368227  0.64564981
   0.33374047  0.89079041  0.50530323
   0.33274732  0.89210555  0.62958157
   0.90979091  0.38522742  0.71293364
   0.14668309  0.89068517  0.56731111
   0.22234318  0.83961895  0.71196950
   0.93769926  0.33206693  0.56726549
   0.66472191  0.89435374  0.22284660
   0.66498145  0.89272873  0.34654212
   0.47935123  0.89275847  0.27946845
   0.56433897  0.83249377  0.42505662
   0.66703339  0.89076322  0.50527087
   0.66599084  0.89219017  0.62956949
   0.47997532  0.89076651  0.56730336
   0.55560864  0.83968892  0.71197357
   0.81270826  0.89269538  0.27947532
   0.89768375  0.83243715  0.42504396
   0.81334155  0.89064181  0.56726862
   0.88899242  0.83963215  0.71193888
Direct configuration=     7
   0.27721281 -0.00414517  0.28233427
   0.27243156  0.00001145  0.56626456
   0.61062362 -0.00423383  0.28236545
   0.60595790 -0.00002458  0.56627540
   0.22732782  0.50022862  0.42423308
   0.94403535 -0.00429829  0.28234336
   0.23408537  0.49542340  0.70918781
   0.93931895 -0.00015193  0.56624713
   0.56065606  0.50019577  0.42423553
   0.56739375  0.49544078  0.70910910
   0.89396934  0.50016489  0.42427496
   0.90063383  0.49549023  0.70918220
   0.06313797  0.49707824  0.49086134
   0.05869700  0.50295017  0.35147507
   0.06169077  0.49562771  0.77293492
   0.05848204  0.50268045  0.63699791
   0.39647658  0.49708245  0.49085058
   0.39200578  0.50296904  0.35147304
   0.21258847  0.49840512  0.28265862
   0.39505221  0.49560572  0.77291506
   0.39183691  0.50265006  0.63699025
   0.22247339  0.49206818  0.56153124
   0.72980856  0.49707512  0.49085466
   0.72531673  0.50297799  0.35147308
   0.10160058  0.00353763  0.49457996
   0.11106142  0.99539647  0.34797125
   0.29402064  0.99124157  0.41929573
   0.54593088  0.49840139  0.28264908
   0.72836818  0.49564637  0.77291305
   0.72516393  0.50266110  0.63700143
   0.09705752  0.00859978  0.77641002
   0.10777206  0.99856561  0.63347692
   0.29088822  0.99613153  0.69976577
   0.55582813  0.49204929  0.56154189
   0.43496630  0.00349862  0.49457805
   0.44438703  0.99541922  0.34796146
   0.62736451  0.99123315  0.41930366
   0.87925899  0.49840752  0.28266248
   0.43036319  0.00862432  0.77641464
   0.44111112  0.99856764  0.63350515
   0.62423804  0.99613211  0.69976260
   0.88913125  0.49205976  0.56154004
   0.76836434  0.00345047  0.49457372
   0.77768935  0.99545307  0.34796518
   0.96068712  0.99124073  0.41929552
   0.76373234  0.00857686  0.77639904
   0.77441300  0.99857194  0.63346733
   0.95762295  0.99606360  0.69975765
   0.04904965  0.39274949  0.48689693
   0.05190253  0.39011963  0.36317616
   0.23952994  0.38981563  0.42488455
   0.27454842  0.32850742  0.27829603
   0.06330511  0.38184386  0.77469094
   0.04604244  0.39479138  0.64602291
   0.24438224  0.38432336  0.71339481
   0.27116230  0.33205647  0.56730162
   0.38240329  0.39278308  0.48687817
   0.38528133  0.39007465  0.36318250
  -0.00207448  0.89449075  0.22328495
  -0.00216641  0.89349543  0.34675065
   0.57274885  0.38997486  0.42484065
   0.60792836  0.32846435  0.27827707
   0.39667327  0.38183542  0.77471215
   0.37944289  0.39469009  0.64603825
   0.00033305  0.89102256  0.50559798
  -0.00088107  0.89240533  0.62957177
   0.57776605  0.38426217  0.71337384
   0.60450543  0.33202293  0.56728928
   0.71568862  0.39282916  0.48688986
   0.71863141  0.39004522  0.36316608
   0.33123879  0.89445188  0.22325687
   0.33124661  0.89339738  0.34673192
   0.90604446  0.39000200  0.42483553
   0.14675966  0.89243657  0.27935572
   0.23086079  0.83252337  0.42503550
   0.94126531  0.32841862  0.27827485
   0.73001017  0.38183145  0.77467241
   0.71272135  0.39472823  0.64607741
   0.33363009  0.89100147  0.50563041
   0.33259532  0.89232617  0.62958019
   0.91101314  0.38432704  0.71338039
   0.14674472  0.89055140  0.56739069
   0.22282517  0.83890932  0.71225125
   0.93784666  0.33196354  0.56729540
   0.66468074  0.89439634  0.22331154
   0.66454021  0.89344602  0.34678239
   0.48006491  0.89251440  0.27933277
   0.56409501  0.83266775  0.42503314
   0.66691254  0.89095647  0.50557558
   0.66581167  0.89242240  0.62957824
   0.48008275  0.89061398  0.56737769
   0.55613149  0.83894961  0.71225499
   0.81341049  0.89245234  0.27933458
   0.89745810  0.83258835  0.42502229
   0.81333208  0.89055550  0.56734081
   0.88944487  0.83895769  0.71222326
Direct configuration=     8
   0.27764494 -0.00396669  0.28257926
   0.27243034  0.00011965  0.56643538
   0.61099221 -0.00394537  0.28264291
   0.60580891  0.00014602  0.56641804
   0.22690919  0.50050754  0.42428639
   0.94438919 -0.00400544  0.28260948
   0.23451907  0.49503762  0.71004047
   0.93921404  0.00001919  0.56641620
   0.56026318  0.50046618  0.42429150
   0.56776076  0.49512136  0.70996506
   0.89358827  0.50044283  0.42432168
   0.90105133  0.49513255  0.71001214
   0.06352649  0.49653779  0.49077612
   0.05878983  0.50312627  0.35090251
   0.06177504  0.49446774  0.77227352
   0.05836086  0.50288369  0.63721276
   0.39688189  0.49653204  0.49076061
   0.39208639  0.50315514  0.35089500
   0.21048212  0.49989115  0.28300169
   0.39514294  0.49444364  0.77225055
   0.39173239  0.50283229  0.63720349
   0.22210812  0.49229174  0.56073576
   0.73021323  0.49652600  0.49076602
   0.72540968  0.50315269  0.35089624
   0.10060888  0.00445104  0.49457306
   0.11249226  0.99398963  0.34754077
   0.29411046  0.99127550  0.41856681
   0.54383356  0.49987857  0.28298944
   0.72844507  0.49449671  0.77225096
   0.72505662  0.50284909  0.63721848
   0.09368798  0.01210073  0.77591849
   0.10800568  0.99841492  0.63368680
   0.28962632  0.99817467  0.69797754
   0.55545703  0.49227798  0.56074740
   0.43397263  0.00441040  0.49457102
   0.44580867  0.99402563  0.34753371
   0.62744478  0.99127086  0.41857912
   0.87714755  0.49989335  0.28300623
   0.42699579  0.01212248  0.77592737
   0.44133673  0.99842527  0.63371773
   0.62297287  0.99817871  0.69797231
   0.88874458  0.49230083  0.56074646
   0.76738854  0.00434926  0.49456120
   0.77912064  0.99404719  0.34753215
   0.96076613  0.99128503  0.41856670
   0.76037067  0.01206436  0.77590327
   0.77463869  0.99841551  0.63366861
   0.95637235  0.99809385  0.69796502
   0.04941339  0.39263293  0.48722730
   0.05169234  0.39021816  0.36361110
   0.23996157  0.38957138  0.42478969
   0.27469692  0.32816085  0.27811559
   0.06490110  0.38095643  0.77540626
   0.04413525  0.39617871  0.64663798
   0.24682242  0.38247624  0.71379431
   0.27174545  0.33154128  0.56727686
   0.38278780  0.39264993  0.48721123
   0.38514148  0.39012288  0.36360634
  -0.00135267  0.89315493  0.22361270
  -0.00264367  0.89445936  0.34713122
   0.57323124  0.38967044  0.42474534
   0.60808637  0.32811080  0.27809807
   0.39827733  0.38093761  0.77542526
   0.37757200  0.39604020  0.64664846
   0.00022193  0.89113754  0.50608245
  -0.00082391  0.89203369  0.62970424
   0.58022983  0.38239166  0.71377509
   0.60509959  0.33148905  0.56726620
   0.71607203  0.39268324  0.48721702
   0.71846122  0.39011737  0.36359587
   0.33197090  0.89312192  0.22358409
   0.33080630  0.89431360  0.34711758
   0.90647035  0.38973372  0.42473647
   0.14670100  0.89253957  0.27926425
   0.23134884  0.83194694  0.42487362
   0.94138020  0.32811630  0.27809342
   0.73163861  0.38091236  0.77538975
   0.71093612  0.39601401  0.64666432
   0.33357276  0.89107562  0.50612873
   0.33270293  0.89189890  0.62971741
   0.91347296  0.38244198  0.71378301
   0.14673250  0.89038570  0.56745986
   0.22420447  0.83714984  0.71239214
   0.93832587  0.33152613  0.56726615
   0.66544011  0.89302357  0.22363757
   0.66405192  0.89440583  0.34715282
   0.47996127  0.89264566  0.27924300
   0.56459234  0.83208250  0.42487686
   0.66678394  0.89112659  0.50609316
   0.66588540  0.89203418  0.62971895
   0.48001272  0.89048542  0.56743616
   0.55756722  0.83714652  0.71240594
   0.81334268  0.89255840  0.27923453
   0.89792640  0.83204049  0.42487068
   0.81334231  0.89041025  0.56740150
   0.89082019  0.83721601  0.71237923
Direct configuration=     9
   0.27822393 -0.00372757  0.28290751
   0.27242870  0.00026464  0.56666426
   0.61148608 -0.00355888  0.28301466
   0.60560928  0.00037460  0.56660916
   0.22634828  0.50088126  0.42435783
   0.94486329 -0.00361306  0.28296603
   0.23510015  0.49452074  0.71118294
   0.93907347  0.00024846  0.56664272
   0.55973677  0.50082849  0.42436648