 268 268   0   0
  0.2624791E+02  0.1259686E-08  0.1781465E-08  0.4433071E-08  0.5000000E-15
  1.000000000000000E-004
  CAR 
 unknown system                          
      7.15319320    -15.95631883  301      1.38623931      1.00000000
    -15.956  0.0000E+00  0.0000E+00
    -15.879  0.0000E+00  0.0000E+00
    -15.802  0.0000E+00  0.0000E+00
    -15.725  0.0000E+00  0.0000E+00
    -15.648  0.0000E+00  0.0000E+00
    -15.571  0.0000E+00  0.0000E+00
    -15.494  0.7206E-15  0.5551E-16
    -15.417  0.3289E-11  0.2534E-12
    -15.340  0.5807E-08  0.4476E-09
    -15.263  0.3321E-05  0.2563E-06
    -15.186  0.6392E-03  0.4950E-04
    -15.109  0.4412E-01  0.3448E-02
    -15.032  0.1199E+01  0.9578E-01
    -14.955  0.1422E+02  0.1191E+01
    -14.878  0.7907E+02  0.7282E+01
    -14.801  0.2087E+03  0.2336E+02
    -14.724  0.2647E+03  0.4375E+02
    -14.647  0.2189E+03  0.6062E+02
    -14.570  0.2733E+03  0.8167E+02
    -14.493  0.3388E+03  0.1078E+03
    -14.416  0.2058E+03  0.1236E+03
    -14.339  0.5163E+02  0.1276E+03
    -14.262  0.5043E+01  0.1280E+03
    -14.185  0.1841E+00  0.1280E+03
    -14.108  0.2423E-02  0.1280E+03
    -14.031  0.1115E-04  0.1280E+03
    -13.953  0.1746E-07  0.1280E+03
    -13.876  0.9093E-11  0.1280E+03
    -13.799  0.0000E+00  0.1280E+03
    -13.722  0.0000E+00  0.1280E+03
    -13.645  0.0000E+00  0.1280E+03
    -13.568  0.0000E+00  0.1280E+03
    -13.491  0.0000E+00  0.1280E+03
    -13.414  0.0000E+00  0.1280E+03
    -13.337  0.0000E+00  0.1280E+03
    -13.260  0.0000E+00  0.1280E+03
    -13.183  0.0000E+00  0.1280E+03
    -13.106  0.0000E+00  0.1280E+03
    -13.029  0.0000E+00  0.1280E+03
    -12.952  0.0000E+00  0.1280E+03
    -12.875  0.0000E+00  0.1280E+03
    -12.798  0.0000E+00  0.1280E+03
    -12.721  0.0000E+00  0.1280E+03
    -12.644  0.0000E+00  0.1280E+03
    -12.567  0.0000E+00  0.1280E+03
    -12.490  0.0000E+00  0.1280E+03
    -12.413  0.0000E+00  0.1280E+03
    -12.336  0.0000E+00  0.1280E+03
    -12.259  0.0000E+00  0.1280E+03
    -12.182  0.0000E+00  0.1280E+03
    -12.105  0.0000E+00  0.1280E+03
    -12.028  0.0000E+00  0.1280E+03
    -11.951  0.0000E+00  0.1280E+03
    -11.874  0.0000E+00  0.1280E+03
    -11.797  0.0000E+00  0.1280E+03
    -11.720  0.0000E+00  0.1280E+03
    -11.643  0.0000E+00  0.1280E+03
    -11.566  0.0000E+00  0.1280E+03
    -11.488  0.0000E+00  0.1280E+03
    -11.411  0.0000E+00  0.1280E+03
    -11.334  0.0000E+00  0.1280E+03
    -11.257  0.0000E+00  0.1280E+03
    -11.180  0.0000E+00  0.1280E+03
    -11.103  0.0000E+00  0.1280E+03
    -11.026  0.0000E+00  0.1280E+03
    -10.949  0.0000E+00  0.1280E+03
    -10.872  0.0000E+00  0.1280E+03
    -10.795  0.0000E+00  0.1280E+03
    -10.718  0.0000E+00  0.1280E+03
    -10.641  0.0000E+00  0.1280E+03
    -10.564  0.0000E+00  0.1280E+03
    -10.487  0.0000E+00  0.1280E+03
    -10.410  0.0000E+00  0.1280E+03
    -10.333  0.0000E+00  0.1280E+03
    -10.256  0.0000E+00  0.1280E+03
    -10.179  0.0000E+00  0.1280E+03
    -10.102  0.0000E+00  0.1280E+03
    -10.025  0.0000E+00  0.1280E+03
     -9.948  0.0000E+00  0.1280E+03
     -9.871  0.0000E+00  0.1280E+03
     -9.794  0.0000E+00  0.1280E+03
     -9.717  0.0000E+00  0.1280E+03
     -9.640  0.0000E+00  0.1280E+03
     -9.563  0.0000E+00  0.1280E+03
     -9.486  0.0000E+00  0.1280E+03
     -9.409  0.0000E+00  0.1280E+03
     -9.332  0.0000E+00  0.1280E+03
     -9.255  0.0000E+00  0.1280E+03
     -9.178  0.0000E+00  0.1280E+03
     -9.100  0.0000E+00  0.1280E+03
     -9.023  0.0000E+00  0.1280E+03
     -8.946  0.0000E+00  0.1280E+03
     -8.869  0.0000E+00  0.1280E+03
     -8.792  0.0000E+00  0.1280E+03
     -8.715  0.0000E+00  0.1280E+03
     -8.638  0.0000E+00  0.1280E+03
     -8.561  0.0000E+00  0.1280E+03
     -8.484  0.0000E+00  0.1280E+03
     -8.407  0.0000E+00  0.1280E+03
     -8.330  0.0000E+00  0.1280E+03
     -8.253  0.0000E+00  0.1280E+03
     -8.176  0.0000E+00  0.1280E+03
     -8.099  0.0000E+00  0.1280E+03
     -8.022  0.0000E+00  0.1280E+03
     -7.945  0.0000E+00  0.1280E+03
     -7.868  0.0000E+00  0.1280E+03
     -7.791  0.0000E+00  0.1280E+03
     -7.714  0.0000E+00  0.1280E+03
     -7.637  0.0000E+00  0.1280E+03
     -7.560  0.0000E+00  0.1280E+03
     -7.483  0.0000E+00  0.1280E+03
     -7.406  0.0000E+00  0.1280E+03
     -7.329  0.0000E+00  0.1280E+03
     -7.252  0.0000E+00  0.1280E+03
     -7.175  0.0000E+00  0.1280E+03
     -7.098  0.0000E+00  0.1280E+03
     -7.021  0.0000E+00  0.1280E+03
     -6.944  0.0000E+00  0.1280E+03
     -6.867  0.0000E+00  0.1280E+03
     -6.790  0.0000E+00  0.1280E+03
     -6.713  0.0000E+00  0.1280E+03
     -6.635  0.0000E+00  0.1280E+03
     -6.558  0.0000E+00  0.1280E+03
     -6.481  0.0000E+00  0.1280E+03
     -6.404  0.0000E+00  0.1280E+03
     -6.327  0.0000E+00  0.1280E+03
     -6.250  0.0000E+00  0.1280E+03
     -6.173  0.0000E+00  0.1280E+03
     -6.096  0.0000E+00  0.1280E+03
     -6.019  0.0000E+00  0.1280E+03
     -5.942  0.0000E+00  0.1280E+03
     -5.865  0.0000E+00  0.1280E+03
     -5.788  0.0000E+00  0.1280E+03
     -5.711  0.0000E+00  0.1280E+03
     -5.634  0.0000E+00  0.1280E+03
     -5.557  0.0000E+00  0.1280E+03
     -5.480  0.0000E+00  0.1280E+03
     -5.403  0.0000E+00  0.1280E+03
     -5.326  0.0000E+00  0.1280E+03
     -5.249  0.0000E+00  0.1280E+03
     -5.172  0.0000E+00  0.1280E+03
     -5.095  0.0000E+00  0.1280E+03
     -5.018  0.0000E+00  0.1280E+03
     -4.941  0.0000E+00  0.1280E+03
     -4.864  0.0000E+00  0.1280E+03
     -4.787  0.0000E+00  0.1280E+03
     -4.710  0.0000E+00  0.1280E+03
     -4.633  0.0000E+00  0.1280E+03
     -4.556  0.0000E+00  0.1280E+03
     -4.479  0.0000E+00  0.1280E+03
     -4.402  0.0000E+00  0.1280E+03
     -4.325  0.0000E+00  0.1280E+03
     -4.247  0.1254E-12  0.1280E+03
     -4.170  0.4277E-09  0.1280E+03
     -4.093  0.4674E-06  0.1280E+03
     -4.016  0.1651E-03  0.1280E+03
     -3.939  0.1924E-01  0.1280E+03
     -3.862  0.7652E+00  0.1281E+03
     -3.785  0.1096E+02  0.1289E+03
     -3.708  0.6147E+02  0.1336E+03
     -3.631  0.1510E+03  0.1453E+03
     -3.554  0.1921E+03  0.1601E+03
     -3.477  0.1875E+03  0.1745E+03
     -3.400  0.2494E+03  0.1937E+03
     -3.323  0.3276E+03  0.2190E+03
     -3.246  0.2951E+03  0.2417E+03
     -3.169  0.2208E+03  0.2587E+03
     -3.092  0.1714E+03  0.2719E+03
     -3.015  0.1785E+03  0.2857E+03
     -2.938  0.1976E+03  0.3009E+03
     -2.861  0.1457E+03  0.3121E+03
     -2.784  0.7418E+02  0.3178E+03
     -2.707  0.2439E+02  0.3197E+03
     -2.630  0.3742E+01  0.3200E+03
     -2.553  0.2191E+00  0.3200E+03
     -2.476  0.4509E-02  0.3200E+03
     -2.399  0.3126E-04  0.3200E+03
     -2.322  0.7106E-07  0.3200E+03
     -2.245  0.5443E-09  0.3200E+03
     -2.168  0.3882E-06  0.3200E+03
     -2.091  0.9651E-04  0.3200E+03
     -2.014  0.7653E-02  0.3200E+03
     -1.937  0.1967E+00  0.3200E+03
     -1.860  0.1678E+01  0.3201E+03
     -1.782  0.5005E+01  0.3205E+03
     -1.705  0.6519E+01  0.3210E+03
     -1.628  0.6483E+01  0.3215E+03
     -1.551  0.4737E+01  0.3219E+03
     -1.474  0.3069E+01  0.3221E+03
     -1.397  0.8760E+01  0.3228E+03
     -1.320  0.2150E+02  0.3245E+03
     -1.243  0.2840E+02  0.3267E+03
     -1.166  0.2839E+02  0.3288E+03
     -1.089  0.2578E+02  0.3308E+03
     -1.012  0.2371E+02  0.3327E+03
     -0.935  0.3987E+02  0.3357E+03
     -0.858  0.6693E+02  0.3409E+03
     -0.781  0.1057E+03  0.3490E+03
     -0.704  0.1543E+03  0.3609E+03
     -0.627  0.2418E+03  0.3795E+03
     -0.550  0.3373E+03  0.4055E+03
     -0.473  0.3633E+03  0.4335E+03
     -0.396  0.3511E+03  0.4605E+03
     -0.319  0.3509E+03  0.4876E+03
     -0.242  0.3500E+03  0.5145E+03
     -0.165  0.2625E+03  0.5348E+03
     -0.088  0.1148E+03  0.5436E+03
     -0.011  0.4929E+02  0.5474E+03
      0.066  0.5350E+02  0.5515E+03
      0.143  0.5001E+02  0.5554E+03
      0.220  0.3509E+02  0.5581E+03
      0.297  0.2777E+02  0.5602E+03
      0.374  0.2424E+02  0.5621E+03
      0.451  0.3264E+02  0.5646E+03
      0.528  0.6536E+02  0.5696E+03
      0.605  0.9093E+02  0.5766E+03
      0.683  0.7728E+02  0.5826E+03
      0.760  0.6016E+02  0.5872E+03
      0.837  0.4765E+02  0.5909E+03
      0.914  0.4789E+02  0.5946E+03
      0.991  0.7336E+02  0.6002E+03
      1.068  0.7207E+02  0.6058E+03
      1.145  0.4401E+02  0.6092E+03
      1.222  0.2811E+02  0.6113E+03
      1.299  0.3832E+02  0.6143E+03
      1.376  0.6531E+02  0.6193E+03
      1.453  0.5029E+02  0.6232E+03
      1.530  0.2540E+02  0.6252E+03
      1.607  0.2496E+02  0.6271E+03
      1.684  0.3031E+02  0.6294E+03
      1.761  0.5786E+02  0.6339E+03
      1.838  0.7621E+02  0.6397E+03
      1.915  0.5664E+02  0.6441E+03
      1.992  0.3749E+02  0.6470E+03
      2.069  0.3575E+02  0.6497E+03
      2.146  0.5000E+02  0.6536E+03
      2.223  0.6927E+02  0.6589E+03
      2.300  0.9335E+02  0.6661E+03
      2.377  0.1049E+03  0.6742E+03
      2.454  0.7689E+02  0.6801E+03
      2.531  0.4491E+02  0.6836E+03
      2.608  0.4665E+02  0.6872E+03
      2.685  0.6082E+02  0.6919E+03
      2.762  0.6735E+02  0.6970E+03
      2.839  0.7604E+02  0.7029E+03
      2.916  0.9101E+02  0.7099E+03
      2.993  0.9958E+02  0.7176E+03
      3.071  0.9821E+02  0.7252E+03
      3.148  0.9579E+02  0.7325E+03
      3.225  0.8857E+02  0.7394E+03
      3.302  0.6879E+02  0.7447E+03
      3.379  0.6797E+02  0.7499E+03
      3.456  0.8317E+02  0.7563E+03
      3.533  0.1107E+03  0.7648E+03
      3.610  0.1156E+03  0.7737E+03
      3.687  0.9060E+02  0.7807E+03
      3.764  0.7976E+02  0.7869E+03
      3.841  0.7992E+02  0.7930E+03
      3.918  0.6800E+02  0.7982E+03
      3.995  0.5807E+02  0.8027E+03
      4.072  0.7097E+02  0.8082E+03
      4.149  0.8822E+02  0.8150E+03
      4.226  0.8957E+02  0.8219E+03
      4.303  0.8254E+02  0.8282E+03
      4.380  0.7632E+02  0.8341E+03
      4.457  0.4865E+02  0.8379E+03
      4.534  0.2150E+02  0.8395E+03
      4.611  0.1224E+02  0.8405E+03
      4.688  0.1609E+02  0.8417E+03
      4.765  0.2494E+02  0.8436E+03
      4.842  0.3057E+02  0.8460E+03
      4.919  0.2222E+02  0.8477E+03
      4.996  0.1416E+02  0.8488E+03
      5.073  0.1734E+02  0.8501E+03
      5.150  0.2324E+02  0.8519E+03
      5.227  0.3146E+02  0.8543E+03
      5.304  0.4600E+02  0.8579E+03
      5.381  0.5995E+02  0.8625E+03
      5.458  0.6275E+02  0.8673E+03
      5.536  0.6132E+02  0.8721E+03
      5.613  0.6703E+02  0.8772E+03
      5.690  0.6882E+02  0.8825E+03
      5.767  0.6120E+02  0.8872E+03
      5.844  0.4632E+02  0.8908E+03
      5.921  0.3131E+02  0.8932E+03
      5.998  0.1828E+02  0.8946E+03
      6.075  0.8792E+01  0.8953E+03
      6.152  0.5930E+01  0.8958E+03
      6.229  0.2709E+01  0.8960E+03
      6.306  0.4584E+00  0.8960E+03
      6.383  0.2599E-01  0.8960E+03
      6.460  0.4807E-03  0.8960E+03
      6.537  0.2850E-05  0.8960E+03
      6.614  0.5346E-08  0.8960E+03
      6.691  0.3145E-11  0.8960E+03
      6.768  0.0000E+00  0.8960E+03
      6.845  0.0000E+00  0.8960E+03
      6.922  0.0000E+00  0.8960E+03
      6.999  0.0000E+00  0.8960E+03
      7.076  0.0000E+00  0.8960E+03
      7.153  0.0000E+00  0.8960E+03
