 vasp.6.2.1 16May21 (build Dec 23 2021 00:35:04) complex                        
  
 executed on             LinuxIFC date 2023.03.05  13:29:30
 running on  128 total cores
 distrk:  each k-point on  128 cores,    1 groups
 distr:  one band on NCORE=  16 cores,    8 groups


--------------------------------------------------------------------------------------------------------


 INCAR:
   AMIN = 0.010000
   ENCUT = 400.000000
   KSPACING = 0.500000
   SIGMA = 0.100000
   EDIFF = 1.00e-08
   EDIFFG = -1.00e-02
   ALGO = Fast
   GGA = PE
   PREC = Normal
   IBRION = -1
   ISIF = 3
   ISMEAR = 0
   ISPIN = 0
   ISYM = 0
   LMAXMIX = 6
   NELM = 150
   NPAR = 8
   NSW = 0
   NWRITE = 1
   KGAMMA = .TRUE.
   LASPH = .TRUE.
   LCHARG = .FALSE.
   LWAVE = .FALSE.
   LREAL = AUTO

 POTCAR:    PAW_PBE Cl 06Sep2000                  
 POTCAR:    PAW_PBE Na 08Apr2002                  
 POTCAR:    PAW_PBE O 08Apr2002                   
 POTCAR:    PAW_PBE Cl 06Sep2000                  
  local pseudopotential read in
  partial core-charges read in
  partial kinetic energy density read in
  atomic valenz-charges read in
  non local Contribution for L=           0  read in
    real space projection operators read in
  non local Contribution for L=           0  read in
    real space projection operators read in
  non local Contribution for L=           1  read in
    real space projection operators read in
  non local Contribution for L=           1  read in
    real space projection operators read in
    PAW grid and wavefunctions read in
 
   number of l-projection  operators is LMAX  =           4
   number of lm-projection operators is LMMAX =           8
 
 POTCAR:    PAW_PBE Na 08Apr2002                  
  local pseudopotential read in
  partial core-charges read in
  partial kinetic energy density read in
  atomic valenz-charges read in
  non local Contribution for L=           0  read in
    real space projection operators read in
  non local Contribution for L=           0  read in
    real space projection operators read in
  non local Contribution for L=           1  read in
    real space projection operators read in
    PAW grid and wavefunctions read in
 
   number of l-projection  operators is LMAX  =           3
   number of lm-projection operators is LMMAX =           5
 
 POTCAR:    PAW_PBE O 08Apr2002                   
  local pseudopotential read in
  partial core-charges read in
  partial kinetic energy density read in
  kinetic energy density of atom read in
  atomic valenz-charges read in
  non local Contribution for L=           0  read in
    real space projection operators read in
  non local Contribution for L=           0  read in
    real space projection operators read in
  non local Contribution for L=           1  read in
    real space projection operators read in
  non local Contribution for L=           1  read in
    real space projection operators read in
    PAW grid and wavefunctions read in
 
   number of l-projection  operators is LMAX  =           4
   number of lm-projection operators is LMMAX =           8
 
 Optimization of the real space projectors (new method)

 maximal supplied QI-value         = 19.84
 optimisation between [QCUT,QGAM] = [ 10.12, 20.44] = [ 28.68,116.96] Ry 
 Optimized for a Real-space Cutoff    1.23 Angstroem

   l    n(q)    QCUT    max X(q) W(low)/X(q) W(high)/X(q)  e(spline) 
   0      7    10.119   168.010    0.54E-04    0.25E-03    0.48E-07
   0      7    10.119   164.674    0.53E-04    0.25E-03    0.47E-07
   1      7    10.119    69.222    0.45E-03    0.63E-03    0.13E-06
   1      7    10.119    56.786    0.45E-03    0.62E-03    0.13E-06
 Optimization of the real space projectors (new method)

 maximal supplied QI-value         = 17.01
 optimisation between [QCUT,QGAM] = [ 10.20, 20.41] = [ 29.16,116.64] Ry 
 Optimized for a Real-space Cutoff    1.19 Angstroem

   l    n(q)    QCUT    max X(q) W(low)/X(q) W(high)/X(q)  e(spline) 
   0      7    10.205    45.123    0.22E-03    0.82E-03    0.11E-06
   0      7    10.205    12.364    0.17E-03    0.61E-03    0.75E-07
   1      7    10.205     8.302    0.37E-03    0.15E-03    0.27E-07
 Optimization of the real space projectors (new method)

 maximal supplied QI-value         = 24.76
 optimisation between [QCUT,QGAM] = [ 10.15, 20.30] = [ 28.85,115.39] Ry 
 Optimized for a Real-space Cutoff    1.38 Angstroem

   l    n(q)    QCUT    max X(q) W(low)/X(q) W(high)/X(q)  e(spline) 
   0      8    10.150    20.381    0.22E-03    0.32E-03    0.29E-06
   0      8    10.150    15.268    0.23E-03    0.35E-03    0.30E-06
   1      8    10.150     5.964    0.46E-03    0.53E-03    0.21E-06
   1      8    10.150     5.382    0.38E-03    0.45E-03    0.19E-06
  PAW_PBE Cl 06Sep2000                  :
 energy of atom  1       EATOM= -409.7259
 kinetic energy error for atom=    0.0089 (will be added to EATOM!!)
  PAW_PBE Na 08Apr2002                  :
 energy of atom  2       EATOM=   -5.1581
 kinetic energy error for atom=    0.0001 (will be added to EATOM!!)
  PAW_PBE O 08Apr2002                   :
 energy of atom  3       EATOM= -432.3788
 kinetic energy error for atom=    0.1156 (will be added to EATOM!!)
 
 
 POSCAR: Cl Na  O
  positions in cartesian coordinates
  No initial velocities read in
 exchange correlation table for  LEXCH =        8
   RHO(1)=    0.500       N(1)  =     2000
   RHO(2)=  100.500       N(2)  =     4000
 


--------------------------------------------------------------------------------------------------------


 ion  position               nearest neighbor table
   1  0.153  0.054  0.085-  33 3.15  90 3.15  81 3.15  66 3.15  77 3.17  89 3.17  34 3.17  67 3.17
                            78 3.18  92 3.18  70 3.21  36 3.21
   2  0.153  0.054  0.187-  83 3.15  35 3.15  69 3.15  93 3.15  78 3.16  92 3.16  73 3.17  38 3.17
                            79 3.17  95 3.17  70 3.19  36 3.19
   3  0.153  0.054  0.289-  96 3.15  37 3.15  85 3.15  72 3.15  73 3.16  38 3.16  40 3.17  76 3.17
                            95 3.17  79 3.17  98 3.19  80 3.19
   4  0.153  0.054  0.390-  40 3.12  76 3.12  98 3.14  80 3.14  87 3.15  39 3.15  99 3.15  75 3.15

   5  0.153  0.304  0.085- 102 3.15  42 3.15  33 3.15  90 3.15  43 3.17  34 3.17 101 3.17  41 3.17
                            36 3.18  46 3.18  44 3.21 104 3.21
   6  0.153  0.304  0.187-  93 3.15 105 3.15  35 3.15  45 3.15  36 3.16  46 3.16 107 3.17  47 3.17
                            38 3.18  49 3.18  44 3.19 104 3.19
   7  0.153  0.304  0.289-  48 3.15 108 3.15  37 3.15  96 3.15 107 3.16  47 3.16 110 3.17  50 3.17
                            38 3.17  49 3.17  52 3.19  40 3.19
   8  0.153  0.304  0.390-  50 3.12 110 3.12  40 3.14  52 3.14 111 3.15  39 3.15  51 3.15  99 3.15
                           130 3.17
   9  0.153  0.554  0.085-  54 3.15 114 3.15 102 3.15  42 3.15  53 3.17 113 3.17  55 3.17  43 3.17
                            56 3.18 116 3.18  46 3.21  58 3.21
  10  0.153  0.554  0.187-  45 3.15  57 3.15 117 3.15 105 3.15  56 3.16 116 3.16  49 3.17  61 3.17
                           119 3.17  59 3.17  46 3.19  58 3.19
  11  0.153  0.554  0.289-  60 3.15 120 3.15  48 3.15 108 3.15  49 3.16  61 3.16  64 3.17  52 3.17
                           119 3.17  59 3.17  62 3.19 122 3.19
  12  0.153  0.554  0.390- 154 3.00  52 3.12  64 3.12 122 3.14  62 3.14 111 3.15  63 3.15 123 3.15
                            51 3.15
  13  0.153  0.804  0.085-  81 3.15  66 3.15  54 3.15 114 3.15  67 3.17  55 3.17 125 3.17  65 3.17
                            58 3.18  70 3.18  68 3.21 126 3.21
  14  0.153  0.804  0.187-  83 3.15  69 3.15 117 3.15  57 3.15  58 3.16  70 3.16 127 3.17  71 3.17
                            61 3.18  73 3.18  68 3.19 126 3.19
  15  0.153  0.804  0.289-  85 3.15 120 3.15  60 3.15  72 3.15  71 3.16 127 3.16 128 3.17  74 3.17
                            61 3.17  73 3.17  76 3.19  64 3.19
  16  0.153  0.804  0.390- 128 3.12  74 3.12  64 3.14  76 3.14  87 3.15  63 3.15  75 3.15 123 3.15

  17  0.653  0.054  0.085-  81 3.15  42 3.15  33 3.15 114 3.15 125 3.17  41 3.17  82 3.17 115 3.17
                           126 3.18  44 3.18 118 3.21  84 3.21
  18  0.653  0.054  0.187-  35 3.15  83 3.15 117 3.15  45 3.15 126 3.16  44 3.16 121 3.17  86 3.17
                           127 3.17  47 3.17 118 3.19  84 3.19
  19  0.653  0.054  0.289-  48 3.15  85 3.15  37 3.15 120 3.15 121 3.16  86 3.16  88 3.17 124 3.17
                            47 3.17 127 3.17  50 3.19 128 3.19
  20  0.653  0.054  0.390-  88 3.12 124 3.12  50 3.14 128 3.14  39 3.15  87 3.15  51 3.15 123 3.15

  21  0.653  0.304  0.085-  54 3.15  90 3.15  81 3.15  42 3.15  91 3.17  82 3.17  53 3.17  89 3.17
                            84 3.18  94 3.18  92 3.21  56 3.21
  22  0.653  0.304  0.187-  45 3.15  57 3.15  83 3.15  93 3.15  84 3.16  94 3.16  59 3.17  95 3.17
                            86 3.18  97 3.18  92 3.19  56 3.19
  23  0.653  0.304  0.289-  96 3.15  60 3.15  85 3.15  48 3.15  59 3.16  95 3.16  62 3.17  98 3.17
                            86 3.17  97 3.17 100 3.19  88 3.19
  24  0.653  0.304  0.390-  98 3.12  62 3.12  88 3.14 100 3.14  63 3.15  87 3.15  99 3.15  51 3.15
                           166 3.41
  25  0.653  0.554  0.085- 102 3.15  66 3.15  54 3.15  90 3.15 101 3.17  65 3.17 103 3.17  91 3.17
                           104 3.18  68 3.18  94 3.21 106 3.21
  26  0.653  0.554  0.187-  93 3.15 105 3.15  69 3.15  57 3.15 104 3.16  68 3.16  97 3.17 109 3.17
                            71 3.17 107 3.17  94 3.19 106 3.19
  27  0.653  0.554  0.289- 108 3.15  72 3.15  96 3.15  60 3.15  97 3.16 109 3.16 112 3.17 100 3.17
                            71 3.17 107 3.17 110 3.19  74 3.19
  28  0.653  0.554  0.390- 100 3.12 112 3.12  74 3.14 110 3.14  63 3.15 111 3.15  75 3.15  99 3.15
                           178 3.44
  29  0.653  0.804  0.085-  33 3.15 114 3.15 102 3.15  66 3.15 115 3.17 103 3.17  77 3.17 113 3.17
                           106 3.18 118 3.18 116 3.21  78 3.21
  30  0.653  0.804  0.187-  35 3.15 117 3.15  69 3.15 105 3.15 106 3.16 118 3.16  79 3.17 119 3.17
                           109 3.18 121 3.18 116 3.19  78 3.19
  31  0.653  0.804  0.289-  37 3.15  72 3.15 108 3.15 120 3.15 119 3.16  79 3.16  80 3.17 122 3.17
                           109 3.17 121 3.17 124 3.19 112 3.19
  32  0.653  0.804  0.390-  80 3.12 122 3.12 124 3.14 112 3.14  39 3.15 111 3.15 123 3.15  75 3.15
                           214 3.27
  33  0.403  0.054  0.085- 237 2.24 238 2.26  29 3.15   1 3.15  17 3.15   5 3.15  78 3.17  44 3.17
                           118 3.17  36 3.17  77 3.19  41 3.19  34 3.19 115 3.19
  34  0.153  0.179  0.034- 257 2.23 237 2.23  89 3.15  77 3.15 101 3.15  41 3.15   1 3.17   5 3.17
                            90 3.19  33 3.19 139 3.52
  35  0.403  0.054  0.187- 239 2.26 238 2.26  30 3.15  18 3.15   2 3.15   6 3.15  79 3.17  47 3.17
                           118 3.17  36 3.17  38 3.17 121 3.17  44 3.18  78 3.18
  36  0.153  0.180  0.136- 258 2.23 238 2.23  78 3.15  92 3.15  44 3.15 104 3.15   6 3.16  93 3.17
                            90 3.17  35 3.17  33 3.17   5 3.18   2 3.19   1 3.21
  37  0.403  0.054  0.289- 239 2.26 240 2.26  31 3.15   3 3.15  19 3.15   7 3.15  47 3.17  79 3.17
                           121 3.17  38 3.17  80 3.17  50 3.17 124 3.18  40 3.18
  38  0.153  0.178  0.238- 259 2.22 239 2.23  95 3.15  79 3.15 107 3.15  47 3.15   3 3.16  96 3.17
                             2 3.17   7 3.17  37 3.17  93 3.17  35 3.17   6 3.18
  39  0.403  0.054  0.390- 240 2.22  40 3.14 124 3.14  50 3.14  80 3.14  32 3.15  20 3.15   4 3.15
                             8 3.15 214 3.60 130 3.78
  40  0.153  0.178  0.340- 260 2.23 240 2.23   4 3.12   8 3.14  39 3.14  99 3.14 110 3.15  50 3.15
                            98 3.15  80 3.15   3 3.17  96 3.17  37 3.18   7 3.19
  41  0.403  0.178  0.034- 237 2.23 241 2.23  82 3.15 115 3.15  43 3.15  34 3.15  17 3.17   5 3.17
                            33 3.19  42 3.19 151 3.32 163 4.10
  42  0.403  0.304  0.085- 241 2.24 242 2.26  17 3.15   5 3.15  21 3.15   9 3.15  44 3.17  56 3.17
                            84 3.17  46 3.17  43 3.19  82 3.19  41 3.19  53 3.19
  43  0.153  0.428  0.034- 241 2.23 261 2.23 163 3.02  53 3.15 113 3.15  41 3.15 101 3.15   9 3.17
                             5 3.17  42 3.19 102 3.19
  44  0.405  0.177  0.136- 238 2.23 242 2.23 118 3.15  84 3.15  36 3.15  46 3.15  18 3.16  42 3.17
                            33 3.17  35 3.18  45 3.18  17 3.18   6 3.19   5 3.21
  45  0.403  0.304  0.187- 242 2.26 243 2.26  10 3.15  22 3.15   6 3.15  18 3.15  49 3.17  86 3.17
                            84 3.17  46 3.17  59 3.17  47 3.17  56 3.18  44 3.18
  46  0.153  0.427  0.136- 242 2.23 262 2.23 116 3.15  56 3.15 104 3.15  44 3.15   6 3.16  45 3.17
                            42 3.17 105 3.17 102 3.17   5 3.18  10 3.19   9 3.21
  47  0.402  0.179  0.238- 239 2.23 243 2.23  86 3.15 121 3.15  49 3.15  38 3.15   7 3.16  37 3.17
                            35 3.17  19 3.17   6 3.17  48 3.17  45 3.17  18 3.17
  48  0.403  0.304  0.289- 243 2.26 244 2.26   7 3.15  19 3.15  11 3.15  23 3.15  86 3.17  49 3.17
                            47 3.17  59 3.17  62 3.17  50 3.17  52 3.17  88 3.17
  49  0.153  0.429  0.238- 243 2.22 263 2.23  59 3.15 119 3.15  47 3.15 107 3.15  11 3.16  48 3.17
                            10 3.17   7 3.17 108 3.17  45 3.17 105 3.17   6 3.18
  50  0.401  0.179  0.340- 244 2.23 240 2.23   8 3.12  20 3.14  39 3.14  51 3.14  52 3.15  40 3.15
                            88 3.15 124 3.15   7 3.17  48 3.17  37 3.17  19 3.19
  51  0.403  0.304  0.390- 244 2.22 142 3.10  88 3.14  52 3.14  50 3.14  62 3.14  20 3.15   8 3.15
                            24 3.15  12 3.15
  52  0.153  0.429  0.340- 244 2.23 264 2.23  12 3.12   8 3.14 111 3.14  51 3.14  50 3.15 110 3.15
                            62 3.15 122 3.15  11 3.17  48 3.17 108 3.18   7 3.19
  53  0.403  0.429  0.034- 245 2.23 241 2.23  43 3.15  55 3.15  82 3.15  91 3.15 187 3.16   9 3.17
                            21 3.17  54 3.19  42 3.19
  54  0.403  0.554  0.085- 245 2.24 246 2.26  21 3.15   9 3.15  25 3.15  13 3.15  56 3.17  68 3.17
                            94 3.17  58 3.17  53 3.19  65 3.19  55 3.19  91 3.19
  55  0.153  0.679  0.034- 265 2.23 245 2.23 113 3.15  53 3.15 125 3.15  65 3.15   9 3.17  13 3.17
                           114 3.19  54 3.19 199 3.21
  56  0.400  0.430  0.136- 246 2.23 242 2.23  58 3.15  46 3.15  94 3.15  84 3.15  10 3.16  42 3.17
                            54 3.17  57 3.18  45 3.18   9 3.18  22 3.19  21 3.21
  57  0.403  0.554  0.187- 247 2.26 246 2.26  10 3.15  22 3.15  14 3.15  26 3.15  59 3.17  71 3.17
                            94 3.17  58 3.17  61 3.17  97 3.17  56 3.18  68 3.18
  58  0.153  0.680  0.136- 266 2.23 246 2.23  56 3.15 116 3.15  68 3.15 126 3.15  14 3.16 117 3.17
                           114 3.17  57 3.17  54 3.17  13 3.18  10 3.19   9 3.21
  59  0.403  0.428  0.238- 247 2.23 243 2.23  49 3.15  61 3.15  86 3.15  97 3.15  23 3.16  60 3.17
                            57 3.17  11 3.17  22 3.17  48 3.17  45 3.17  10 3.17
  60  0.403  0.554  0.289- 247 2.26 248 2.26  11 3.15  15 3.15  23 3.15  27 3.15  59 3.17  71 3.17
                            61 3.17  97 3.17  62 3.17  74 3.17  64 3.18 100 3.18
  61  0.153  0.678  0.238- 267 2.22 247 2.23 119 3.15  59 3.15 127 3.15  71 3.15  11 3.16 120 3.17
                            10 3.17  15 3.17  60 3.17 117 3.17  57 3.17  14 3.18
  62  0.405  0.428  0.340- 244 2.23 248 2.23  24 3.12  12 3.14  63 3.14  51 3.14  88 3.15 100 3.15
                            52 3.15  64 3.15  23 3.17  48 3.17  60 3.17  11 3.19
  63  0.403  0.554  0.390- 248 2.22 100 3.14  64 3.14  74 3.14  62 3.14  24 3.15  28 3.15  12 3.15
                            16 3.15 178 3.29 154 4.05
  64  0.153  0.678  0.340- 268 2.23 248 2.23  12 3.12  16 3.14  63 3.14 123 3.14 128 3.15  74 3.15
                           122 3.15  62 3.15  11 3.17 120 3.17  60 3.18  15 3.19
  65  0.403  0.678  0.034- 245 2.23 249 2.23 103 3.15  91 3.15  67 3.15  55 3.15  25 3.17  13 3.17
                            54 3.19  66 3.19 223 3.65 199 3.81
  66  0.403  0.804  0.085- 249 2.24 250 2.26  25 3.15  13 3.15  29 3.15   1 3.15  68 3.17  78 3.17
                           106 3.17  70 3.17  67 3.19 103 3.19  65 3.19  77 3.19
  67  0.153  0.928  0.034- 249 2.23 253 2.23  77 3.15  89 3.15  65 3.15 125 3.15   1 3.17  13 3.17
                            66 3.19  81 3.19 139 3.99 175 4.14
  68  0.405  0.677  0.136- 246 2.23 250 2.23  94 3.15 106 3.15  58 3.15  70 3.15  26 3.16  66 3.17
                            54 3.17  57 3.18  69 3.18  25 3.18  14 3.19  13 3.21
  69  0.403  0.804  0.187- 250 2.26 251 2.26  14 3.15  26 3.15  30 3.15   2 3.15  73 3.17 109 3.17
                           106 3.17  70 3.17  79 3.17  71 3.17  68 3.18  78 3.18
  70  0.153  0.927  0.136- 250 2.23 254 2.23  92 3.15  78 3.15 126 3.15  68 3.15  14 3.16  69 3.17
                            66 3.17  83 3.17  81 3.17  13 3.18   2 3.19   1 3.21
  71  0.402  0.679  0.238- 247 2.23 251 2.23 109 3.15  97 3.15  73 3.15  61 3.15  15 3.16  60 3.17
                            57 3.17  27 3.17  14 3.17  72 3.17  69 3.17  26 3.17
  72  0.403  0.804  0.289- 251 2.26 252 2.26  27 3.15  31 3.15  15 3.15   3 3.15 109 3.17  73 3.17
                            71 3.17  79 3.17  80 3.17  74 3.17  76 3.17 112 3.17
  73  0.153  0.929  0.238- 251 2.22 255 2.23  79 3.15  95 3.15  71 3.15 127 3.15   3 3.16  72 3.17
                             2 3.17  15 3.17  85 3.17  69 3.17  83 3.17  14 3.18
  74  0.401  0.679  0.340- 252 2.23 248 2.23  16 3.12  28 3.14  63 3.14  75 3.14  76 3.15  64 3.15
                           112 3.15 100 3.15  15 3.17  72 3.17  60 3.17  27 3.19
  75  0.403  0.804  0.390- 252 2.22 112 3.14  76 3.14  74 3.14  80 3.14  28 3.15  16 3.15  32 3.15
                             4 3.15 190 3.62 214 4.04
  76  0.153  0.929  0.340- 252 2.23 256 2.23   4 3.12  16 3.14  87 3.14  75 3.14  74 3.15 128 3.15
                            80 3.15  98 3.15   3 3.17  72 3.17  85 3.18  15 3.19
  77  0.403  0.929  0.034- 237 2.23 249 2.23  67 3.15  34 3.15 103 3.15 115 3.15   1 3.17  29 3.17
                            33 3.19  66 3.19 139 3.67 223 4.07
  78  0.400  0.930  0.136- 238 2.23 250 2.23  36 3.15  70 3.15 118 3.15 106 3.15   2 3.16  66 3.17
                            33 3.17  35 3.18  69 3.18   1 3.18  30 3.19  29 3.21
  79  0.403  0.928  0.238- 239 2.23 251 2.23  73 3.15  38 3.15 109 3.15 121 3.15  31 3.16  37 3.17
                            35 3.17  30 3.17   3 3.17  72 3.17  69 3.17   2 3.17
  80  0.405  0.928  0.340- 252 2.23 240 2.23  32 3.12   4 3.14  39 3.14  75 3.14 112 3.15 124 3.15
                            76 3.15  40 3.15  31 3.17  72 3.17  37 3.17   3 3.19
  81  0.903  0.054  0.085- 253 2.24 254 2.26  13 3.15  17 3.15   1 3.15  21 3.15 126 3.17  92 3.17
                            70 3.17  84 3.17 125 3.19  89 3.19  82 3.19  67 3.19
  82  0.653  0.179  0.034- 241 2.23 253 2.23  41 3.15 125 3.15  53 3.15  89 3.15  17 3.17  21 3.17
                            42 3.19  81 3.19 175 3.43 187 4.19
  83  0.903  0.054  0.187- 255 2.26 254 2.26  14 3.15   2 3.15  18 3.15  22 3.15 127 3.17  95 3.17
                            70 3.17  84 3.17  86 3.17  73 3.17  92 3.18 126 3.18
  84  0.653  0.180  0.136- 242 2.23 254 2.23 126 3.15  44 3.15  92 3.15  56 3.15  22 3.16  45 3.17
                            42 3.17  83 3.17  81 3.17  21 3.18  18 3.19  17 3.21
  85  0.903  0.054  0.289- 255 2.26 256 2.26  15 3.15  19 3.15   3 3.15  23 3.15  95 3.17 127 3.17
                            73 3.17  86 3.17 128 3.17  98 3.17  76 3.18  88 3.18
  86  0.653  0.178  0.238- 243 2.22 255 2.23  47 3.15 127 3.15  59 3.15  95 3.15  19 3.16  48 3.17
                            18 3.17  23 3.17  85 3.17  45 3.17  83 3.17  22 3.18
  87  0.903  0.054  0.390- 256 2.22  88 3.14  76 3.14  98 3.14 128 3.14  16 3.15   4 3.15  20 3.15
                            24 3.15 190 3.81 166 4.00
  88  0.653  0.178  0.340- 244 2.23 256 2.23  20 3.12  24 3.14  87 3.14  51 3.14  62 3.15  98 3.15
                            50 3.15 128 3.15  19 3.17  48 3.17  85 3.18  23 3.19
  89  0.903  0.178  0.034- 253 2.23 257 2.23  34 3.15  67 3.15  91 3.15  82 3.15   1 3.17  21 3.17
                            81 3.19  90 3.19 139 3.84 175 4.00
  90  0.903  0.304  0.085- 257 2.24 258 2.26   1 3.15  21 3.15   5 3.15  25 3.15  92 3.17 104 3.17
                            36 3.17  94 3.17  91 3.19  34 3.19  89 3.19 101 3.19
  91  0.653  0.428  0.034- 257 2.23 245 2.23 101 3.15  65 3.15  89 3.15  53 3.15  25 3.17  21 3.17
                            90 3.19  54 3.19 211 3.60 187 3.77
  92  0.905  0.177  0.136- 254 2.23 258 2.23  70 3.15  36 3.15  84 3.15  94 3.15   2 3.16  90 3.17
                            81 3.17  83 3.18  93 3.18   1 3.18  22 3.19  21 3.21
  93  0.903  0.304  0.187- 258 2.26 259 2.26  26 3.15   6 3.15  22 3.15   2 3.15  97 3.17  38 3.17
                            36 3.17  94 3.17 107 3.17  95 3.17 104 3.18  92 3.18
  94  0.653  0.427  0.136- 258 2.23 246 2.23  68 3.15 104 3.15  56 3.15  92 3.15  22 3.16  93 3.17
                            90 3.17  57 3.17  54 3.17  21 3.18  26 3.19  25 3.21
  95  0.902  0.179  0.238- 255 2.23 259 2.23  38 3.15  73 3.15  97 3.15  86 3.15  23 3.16  85 3.17
                            83 3.17   3 3.17  22 3.17  96 3.17  93 3.17   2 3.17
  96  0.903  0.304  0.289- 259 2.26 260 2.26  23 3.15   3 3.15  27 3.15   7 3.15  38 3.17  97 3.17
                            95 3.17 107 3.17 110 3.17  98 3.17 100 3.17  40 3.17
  97  0.653  0.429  0.238- 259 2.22 247 2.23 107 3.15  71 3.15  95 3.15  59 3.15  27 3.16  96 3.17
                            26 3.17  23 3.17  60 3.17  93 3.17  57 3.17  22 3.18
  98  0.901  0.179  0.340- 260 2.23 256 2.23  24 3.12   4 3.14  87 3.14  99 3.14 100 3.15  88 3.15
                            40 3.15  76 3.15  23 3.17  96 3.17  85 3.17   3 3.19
  99  0.903  0.304  0.390- 260 2.22  40 3.14 100 3.14  98 3.14 110 3.14   4 3.15  24 3.15   8 3.15
                            28 3.15 166 3.52 130 3.95
 100  0.653  0.429  0.340- 260 2.23 248 2.23  28 3.12  24 3.14  63 3.14  99 3.14  98 3.15  62 3.15
                           110 3.15  74 3.15  27 3.17  96 3.17  60 3.18  23 3.19
 101  0.903  0.429  0.034- 261 2.23 257 2.23  91 3.15 103 3.15  34 3.15  43 3.15  25 3.17   5 3.17
                           102 3.19  90 3.19 211 3.25
 102  0.903  0.554  0.085- 261 2.24 262 2.26   5 3.15  25 3.15   9 3.15  29 3.15 104 3.17 116 3.17
                            46 3.17 106 3.17 101 3.19 113 3.19 103 3.19  43 3.19
 103  0.653  0.679  0.034- 249 2.23 261 2.23  65 3.15 101 3.15  77 3.15 113 3.15  25 3.17  29 3.17
                            66 3.19 102 3.19 223 3.30
 104  0.900  0.430  0.136- 262 2.23 258 2.23 106 3.15  94 3.15  46 3.15  36 3.15  26 3.16  90 3.17
                           102 3.17 105 3.18  93 3.18  25 3.18   6 3.19   5 3.21
 105  0.903  0.554  0.187- 263 2.26 262 2.26  26 3.15   6 3.15  30 3.15  10 3.15 107 3.17 119 3.17
                            46 3.17 106 3.17 109 3.17  49 3.17 116 3.18 104 3.18
 106  0.653  0.680  0.136- 250 2.23 262 2.23 104 3.15  68 3.15 116 3.15  78 3.15  30 3.16  69 3.17
                            66 3.17 105 3.17 102 3.17  29 3.18  26 3.19  25 3.21
 107  0.903  0.428  0.238- 263 2.23 259 2.23  97 3.15 109 3.15  38 3.15  49 3.15   7 3.16 108 3.17
                           105 3.17  27 3.17   6 3.17  96 3.17  93 3.17  26 3.17
 108  0.903  0.554  0.289- 263 2.26 264 2.26  27 3.15  31 3.15   7 3.15  11 3.15 107 3.17 119 3.17
                           109 3.17  49 3.17 110 3.17 122 3.17 112 3.18  52 3.18
 109  0.653  0.678  0.238- 251 2.22 263 2.23  71 3.15 107 3.15  79 3.15 119 3.15  27 3.16  72 3.17
                            26 3.17  31 3.17 108 3.17  69 3.17 105 3.17  30 3.18
 110  0.905  0.428  0.340- 260 2.23 264 2.23   8 3.12  28 3.14 111 3.14  99 3.14  40 3.15  52 3.15
                           100 3.15 112 3.15   7 3.17  96 3.17 108 3.17  27 3.19
 111  0.903  0.554  0.390- 264 2.22 202 3.03  52 3.14 112 3.14 122 3.14 110 3.14   8 3.15  12 3.15
                            28 3.15  32 3.15
 112  0.653  0.678  0.340- 252 2.23 264 2.23  28 3.12  32 3.14 111 3.14  75 3.14  80 3.15 122 3.15
                            74 3.15 110 3.15  27 3.17  72 3.17 108 3.18  31 3.19
 113  0.903  0.678  0.034- 261 2.23 265 2.23 235 3.09  55 3.15  43 3.15 115 3.15 103 3.15   9 3.17
                            29 3.17 102 3.19 114 3.19
 114  0.903  0.804  0.085- 265 2.24 266 2.26   9 3.15  29 3.15  13 3.15  17 3.15 116 3.17 126 3.17
                            58 3.17 118 3.17 115 3.19  55 3.19 113 3.19 125 3.19
 115  0.653  0.928  0.034- 265 2.23 237 2.23 125 3.15  41 3.15 113 3.15  77 3.15  17 3.17  29 3.17
                           114 3.19  33 3.19 151 3.47 235 3.87
 116  0.905  0.677  0.136- 262 2.23 266 2.23  46 3.15  58 3.15 106 3.15 118 3.15  10 3.16 114 3.17
                           102 3.17 105 3.18 117 3.18   9 3.18  30 3.19  29 3.21
 117  0.903  0.804  0.187- 266 2.26 267 2.26  30 3.15  10 3.15  14 3.15  18 3.15 121 3.17  61 3.17
                            58 3.17 118 3.17 127 3.17 119 3.17 116 3.18 126 3.18
 118  0.653  0.927  0.136- 266 2.23 238 2.23  44 3.15 126 3.15  78 3.15 116 3.15  30 3.16 117 3.17
                           114 3.17  35 3.17  33 3.17  29 3.18  18 3.19  17 3.21
 119  0.902  0.679  0.238- 263 2.23 267 2.23  61 3.15  49 3.15 121 3.15 109 3.15  31 3.16 108 3.17
                           105 3.17  11 3.17  30 3.17 120 3.17 117 3.17  10 3.17
 120  0.903  0.804  0.289- 267 2.26 268 2.26  11 3.15  15 3.15  31 3.15  19 3.15  61 3.17 121 3.17
                           119 3.17 127 3.17 128 3.17 122 3.17 124 3.17  64 3.17
 121  0.653  0.929  0.238- 267 2.22 239 2.23 127 3.15  47 3.15 119 3.15  79 3.15  19 3.16 120 3.17
                            18 3.17  31 3.17  37 3.17 117 3.17  35 3.17  30 3.18
 122  0.901  0.679  0.340- 268 2.23 264 2.23  32 3.12  12 3.14 111 3.14 123 3.14 124 3.15 112 3.15
                            64 3.15  52 3.15  31 3.17 120 3.17 108 3.17  11 3.19
 123  0.903  0.804  0.390- 268 2.22  64 3.14 124 3.14 122 3.14 128 3.14  12 3.15  16 3.15  32 3.15
                            20 3.15 226 3.22 154 4.21
 124  0.653  0.929  0.340- 268 2.23 240 2.23  20 3.12  32 3.14  39 3.14 123 3.14 122 3.15  80 3.15
                           128 3.15  50 3.15  19 3.17 120 3.17  37 3.18  31 3.19
 125  0.903  0.929  0.034- 253 2.23 265 2.23 115 3.15  82 3.15  55 3.15  67 3.15  17 3.17  13 3.17
                            81 3.19 114 3.19 175 3.60 199 3.98
 126  0.900  0.930  0.136- 254 2.23 266 2.23  84 3.15 118 3.15  70 3.15  58 3.15  18 3.16 114 3.17
                            81 3.17  83 3.18 117 3.18  17 3.18  14 3.19  13 3.21
 127  0.903  0.928  0.238- 255 2.23 267 2.23 121 3.15  86 3.15  61 3.15  73 3.15  15 3.16  85 3.17
                            83 3.17  14 3.17  19 3.17 120 3.17 117 3.17  18 3.17
 128  0.905  0.928  0.340- 268 2.23 256 2.23  16 3.12  20 3.14  87 3.14 123 3.14  64 3.15  76 3.15
                           124 3.15  88 3.15  15 3.17 120 3.17  85 3.17  19 3.19
 129  0.169  0.067  0.502- 192 3.56 132 3.56 130 3.58 190 3.58 216 3.58 168 3.59 166 3.59 214 3.59
                           131 4.09 165 4.18 141 4.18 201 4.21 213 4.21
 130  0.170  0.233  0.457-   8 3.17 129 3.58 141 3.58 201 3.58 153 3.58  39 3.78  99 3.95 132 3.97
                           166 4.20 142 4.20 214 4.21 202 4.22
 131  0.169  0.067  0.594- 170 3.63 218 3.64 216 3.65 194 3.65 168 3.65 134 3.65 132 3.65 192 3.65
                           129 4.09 133 4.16 143 4.17 167 4.17 203 4.20 215 4.20
 132  0.170  0.234  0.546- 141 3.55 201 3.55 129 3.56 153 3.56 143 3.64 203 3.64 131 3.65 155 3.65
                           130 3.97 144 4.19 168 4.19
 133  0.169  0.067  0.688- 194 3.60 134 3.60 136 3.62 218 3.62 170 3.62 196 3.62 220 3.63 172 3.63
                           135 4.12 131 4.16 145 4.18 169 4.18
 134  0.169  0.234  0.642- 145 3.60 205 3.60 157 3.60 133 3.60 203 3.62 143 3.62 155 3.65 131 3.65
                           136 4.12 146 4.19 170 4.19 206 4.21 218 4.21
 135  0.169  0.067  0.781- 220 3.60 172 3.60 196 3.60 136 3.60 174 3.62 222 3.63 198 3.65 138 3.65
                           133 4.12 171 4.19 147 4.19 219 4.21 207 4.21
 136  0.170  0.234  0.735- 159 3.60 135 3.60 133 3.62 157 3.62 207 3.62 147 3.62 205 3.63 145 3.63
                           134 4.12 138 4.16 148 4.18 172 4.18
 137  0.170  0.067  0.877- 224 3.55 176 3.55 200 3.56 140 3.56 222 3.65 174 3.65 138 3.65 198 3.65
                           139 3.97 173 4.19 149 4.19
 138  0.169  0.234  0.829- 207 3.63 147 3.64 209 3.64 149 3.65 159 3.65 135 3.65 137 3.65 161 3.65
                           140 4.09 136 4.16 174 4.17 150 4.17 222 4.20 210 4.20
 139  0.169  0.068  0.966-  34 3.52 140 3.58 176 3.58 224 3.59 200 3.59  77 3.67  89 3.84 137 3.97
                            67 3.99 151 4.19 175 4.20 211 4.20 223 4.22
 140  0.169  0.234  0.921- 161 3.56 137 3.56 139 3.58 163 3.58 209 3.59 149 3.59 211 3.59 151 3.59
                           138 4.09 152 4.18 176 4.18 212 4.21 224 4.21
 141  0.502  0.066  0.502- 132 3.55 228 3.56 144 3.57 216 3.57 214 3.58 130 3.58 226 3.58 142 3.59
                           143 4.10 225 4.17 129 4.18 153 4.21
 142  0.503  0.233  0.457-  51 3.10 177 3.57 165 3.58 153 3.58 141 3.59 144 3.99 226 4.18 130 4.20
                           166 4.20 154 4.21
 143  0.501  0.067  0.595- 218 3.62 134 3.62 146 3.63 230 3.63 144 3.64 132 3.64 228 3.65 216 3.65
                           141 4.10 145 4.13 131 4.17 227 4.19 155 4.20
 144  0.504  0.232  0.547- 165 3.56 141 3.57 177 3.57 153 3.59 143 3.64 155 3.65 179 3.65 167 3.65
                           142 3.99 228 4.15 146 4.19 132 4.19 168 4.21
 145  0.503  0.065  0.688- 134 3.60 218 3.60 230 3.61 146 3.62 136 3.63 232 3.64 148 3.64 220 3.64
                           143 4.13 229 4.16 147 4.16 133 4.18
 146  0.503  0.233  0.641- 181 3.60 169 3.61 179 3.62 145 3.62 157 3.62 143 3.63 167 3.63 155 3.63
                           148 4.16 230 4.17 144 4.19 134 4.19 170 4.21 158 4.21
 147  0.503  0.066  0.782- 148 3.60 232 3.61 150 3.62 136 3.62 220 3.62 222 3.63 234 3.63 138 3.64
                           145 4.16 231 4.17 149 4.19 135 4.19 171 4.21 159 4.21
 148  0.503  0.232  0.735- 159 3.60 147 3.60 171 3.61 183 3.62 157 3.63 169 3.63 145 3.64 181 3.64
                           150 4.13 146 4.16 232 4.16 136 4.18
 149  0.504  0.065  0.876- 236 3.56 224 3.57 152 3.57 140 3.59 222 3.64 138 3.65 234 3.65 150 3.65
                           151 3.99 233 4.15 147 4.19 137 4.19 173 4.21
 150  0.501  0.234  0.828- 147 3.62 159 3.62 183 3.63 171 3.63 185 3.64 161 3.64 149 3.65 173 3.65
                           152 4.10 148 4.13 138 4.17 234 4.20 162 4.20
 151  0.504  0.066  0.966-  41 3.32 115 3.47 152 3.57 236 3.58 140 3.59 224 3.59 149 3.99 235 4.17
                           139 4.19 175 4.20 163 4.21
 152  0.502  0.233  0.921- 161 3.55 173 3.56 185 3.57 149 3.57 151 3.57 175 3.58 163 3.58 187 3.60
                           150 4.10 236 4.17 140 4.18 164 4.21
 153  0.169  0.400  0.502- 132 3.56 156 3.56 154 3.58 142 3.58 130 3.58 202 3.59 144 3.59 204 3.59
                           155 4.09 201 4.18 177 4.18 141 4.21 225 4.21
 154  0.170  0.567  0.457-  12 3.00 153 3.58 177 3.58 225 3.58 189 3.58 156 3.97  63 4.05 202 4.20
                           178 4.20 142 4.21 123 4.21 226 4.21
 155  0.169  0.400  0.594- 146 3.63 206 3.64 144 3.65 134 3.65 204 3.65 158 3.65 132 3.65 156 3.65
                           153 4.09 157 4.16 179 4.17 203 4.17 143 4.20 227 4.20
 156  0.169  0.567  0.546- 225 3.55 177 3.55 189 3.56 153 3.56 227 3.65 179 3.65 191 3.65 155 3.65
                           154 3.97 180 4.19 204 4.19
 157  0.170  0.400  0.688- 134 3.60 158 3.61 146 3.62 136 3.62 160 3.62 206 3.62 148 3.63 208 3.63
                           159 4.12 155 4.16 181 4.18 205 4.18
 158  0.169  0.567  0.642- 181 3.60 229 3.60 193 3.60 157 3.61 227 3.62 179 3.62 191 3.65 155 3.65
                           160 4.12 182 4.19 206 4.19 230 4.21 146 4.21
 159  0.169  0.400  0.781- 208 3.60 148 3.60 136 3.60 160 3.61 210 3.62 150 3.62 162 3.65 138 3.65
                           157 4.12 207 4.19 183 4.19 231 4.21 147 4.21
 160  0.170  0.567  0.735- 195 3.61 159 3.61 193 3.62 183 3.62 157 3.62 231 3.62 181 3.63 229 3.63
                           158 4.12 162 4.16 184 4.18 208 4.18
 161  0.169  0.400  0.877- 212 3.55 152 3.55 140 3.56 164 3.56 150 3.64 210 3.64 162 3.65 138 3.65
                           163 3.97 209 4.19 185 4.19
 162  0.170  0.567  0.829- 183 3.63 231 3.63 185 3.65 159 3.65 233 3.65 195 3.65 197 3.65 161 3.65
                           164 4.09 160 4.16 186 4.17 210 4.17 150 4.20 234 4.20
 163  0.169  0.400  0.966-  43 3.02 164 3.58 212 3.58 152 3.58 140 3.58 161 3.97  41 4.10 187 4.20
                           211 4.20 235 4.21 151 4.21
 164  0.169  0.567  0.921- 197 3.56 161 3.56 163 3.58 233 3.59 187 3.59 235 3.59 185 3.59 199 3.59
                           162 4.09 212 4.18 188 4.18 236 4.21 152 4.21
 165  0.837  0.068  0.502- 192 3.55 144 3.56 228 3.57 168 3.57 166 3.58 142 3.58 190 3.58 226 3.60
                           167 4.09 177 4.17 129 4.18 189 4.21
 166  0.835  0.235  0.457-  24 3.41  99 3.52 165 3.58 177 3.58 129 3.59 201 3.59 168 3.99  87 4.00
                           178 4.17 130 4.20 142 4.20 190 4.21
 167  0.838  0.067  0.595- 170 3.62 194 3.62 230 3.63 146 3.63 228 3.64 192 3.65 168 3.65 144 3.65
                           165 4.09 169 4.13 131 4.17 179 4.20 191 4.20
 168  0.834  0.236  0.547- 177 3.56 201 3.57 165 3.57 129 3.59 203 3.64 179 3.65 167 3.65 131 3.65
                           166 3.99 180 4.15 170 4.19 132 4.19 144 4.21
 169  0.836  0.069  0.688- 194 3.60 170 3.60 146 3.61 230 3.62 196 3.63 148 3.63 232 3.64 172 3.64
                           167 4.13 171 4.16 181 4.16 133 4.18
 170  0.836  0.235  0.641- 169 3.60 181 3.61 167 3.62 205 3.62 133 3.62 203 3.63 179 3.63 131 3.63
                           172 4.16 182 4.17 168 4.19 134 4.19 194 4.21 146 4.21
 171  0.836  0.068  0.782- 232 3.60 148 3.61 234 3.62 172 3.62 196 3.62 174 3.63 198 3.63 150 3.63
                           169 4.16 183 4.17 173 4.19 135 4.19 195 4.21 147 4.21
 172  0.836  0.235  0.735- 135 3.60 207 3.60 183 3.61 171 3.62 133 3.63 181 3.64 169 3.64 205 3.64
                           174 4.13 170 4.16 184 4.16 136 4.18
 173  0.835  0.069  0.876- 152 3.56 176 3.57 236 3.57 200 3.58 174 3.64 198 3.65 234 3.65 150 3.65
                           175 3.99 185 4.15 171 4.19 137 4.19 149 4.21
 174  0.838  0.234  0.828- 207 3.62 135 3.62 171 3.63 183 3.63 173 3.64 185 3.65 137 3.65 209 3.65
                           176 4.10 172 4.13 138 4.17 186 4.20 198 4.20
 175  0.835  0.068  0.966-  82 3.43 236 3.58 152 3.58 200 3.59 176 3.59 125 3.60 173 3.99  89 4.00
                            67 4.14 187 4.18 139 4.20 151 4.20 199 4.21
 176  0.836  0.235  0.921- 137 3.55 185 3.56 173 3.57 209 3.57 211 3.57 139 3.58 187 3.58 175 3.59
                           174 4.10 188 4.17 140 4.18 200 4.21
 177  0.502  0.399  0.502- 156 3.55 168 3.56 180 3.57 144 3.57 142 3.57 154 3.58 166 3.58 178 3.59
                           179 4.10 165 4.17 153 4.18 189 4.21
 178  0.504  0.566  0.457-  63 3.29  28 3.44 213 3.58 201 3.58 189 3.59 177 3.59 180 3.99 166 4.17
                           154 4.20 202 4.20 190 4.21
 179  0.501  0.400  0.595- 146 3.62 158 3.62 182 3.63 170 3.63 180 3.64 168 3.65 156 3.65 144 3.65
                           177 4.10 181 4.13 155 4.17 167 4.20 191 4.20
 180  0.504  0.565  0.547- 201 3.57 177 3.57 213 3.57 189 3.58 179 3.64 191 3.65 215 3.65 203 3.65
                           178 3.99 168 4.15 182 4.19 156 4.19 204 4.21
 181  0.503  0.399  0.688- 158 3.60 146 3.60 170 3.61 182 3.62 160 3.63 172 3.64 184 3.64 148 3.64
                           179 4.13 169 4.16 183 4.16 157 4.18
 182  0.503  0.566  0.641- 217 3.60 205 3.61 215 3.62 181 3.62 193 3.62 179 3.63 203 3.63 191 3.64
                           184 4.16 170 4.17 180 4.19 158 4.19 194 4.21 206 4.21
 183  0.503  0.399  0.782- 184 3.60 172 3.61 186 3.62 160 3.62 148 3.62 150 3.63 162 3.63 174 3.63
                           181 4.16 171 4.17 185 4.19 159 4.19 195 4.21 207 4.22
 184  0.503  0.565  0.735- 195 3.60 183 3.60 207 3.61 219 3.62 193 3.63 205 3.63 217 3.64 181 3.64
                           186 4.13 182 4.16 172 4.16 160 4.18
 185  0.504  0.398  0.876- 176 3.56 152 3.57 188 3.57 164 3.59 150 3.64 162 3.65 174 3.65 186 3.65
                           187 3.99 173 4.15 183 4.19 161 4.19 209 4.21
 186  0.501  0.567  0.828- 183 3.62 195 3.62 219 3.63 207 3.63 221 3.64 197 3.64 185 3.65 209 3.65
                           188 4.10 184 4.13 162 4.17 174 4.20 198 4.20
 187  0.503  0.400  0.966-  53 3.16 188 3.58 176 3.58 164 3.59 152 3.60  91 3.77 185 3.99 175 4.18
                            82 4.19 163 4.20 211 4.20 199 4.22
 188  0.502  0.566  0.921- 197 3.55 209 3.56 221 3.57 185 3.57 187 3.58 211 3.58 199 3.58 223 3.59
                           186 4.10 176 4.17 164 4.18 200 4.21
 189  0.169  0.734  0.502- 192 3.56 156 3.56 190 3.58 180 3.58 154 3.58 228 3.59 226 3.59 178 3.59
                           191 4.09 213 4.18 225 4.18 165 4.21 177 4.21
 190  0.170  0.900  0.457- 189 3.58 213 3.58 129 3.58 165 3.58  75 3.62  87 3.81 192 3.97 226 4.20
                           214 4.20 178 4.21 166 4.21
 191  0.169  0.734  0.594- 230 3.63 182 3.64 158 3.65 228 3.65 180 3.65 194 3.65 192 3.65 156 3.65
                           189 4.09 193 4.16 227 4.17 215 4.17 167 4.20 179 4.20
 192  0.170  0.900  0.546- 213 3.55 165 3.55 189 3.56 129 3.56 215 3.64 167 3.65 191 3.65 131 3.65
                           190 3.97 216 4.19 228 4.19
 193  0.170  0.734  0.688- 158 3.60 194 3.60 196 3.62 160 3.62 182 3.62 230 3.62 184 3.63 232 3.63
                           195 4.12 191 4.16 217 4.18 229 4.18
 194  0.170  0.900  0.642- 217 3.60 169 3.60 133 3.60 193 3.60 215 3.62 167 3.62 131 3.65 191 3.65
                           196 4.12 218 4.19 230 4.19 170 4.21 182 4.21
 195  0.169  0.734  0.781- 232 3.60 184 3.60 196 3.60 160 3.61 234 3.62 186 3.62 198 3.64 162 3.65
                           193 4.12 231 4.19 219 4.19 171 4.21 183 4.21
 196  0.170  0.900  0.735- 135 3.60 195 3.60 193 3.62 133 3.62 171 3.62 219 3.62 217 3.63 169 3.63
                           194 4.12 198 4.16 220 4.18 232 4.18
 197  0.170  0.734  0.877- 188 3.55 236 3.55 164 3.56 200 3.56 186 3.64 234 3.65 162 3.65 198 3.65
                           199 3.97 221 4.19 233 4.19
 198  0.170  0.900  0.829- 219 3.63 171 3.63 195 3.64 221 3.65 135 3.65 173 3.65 197 3.65 137 3.65
                           200 4.09 196 4.16 234 4.17 222 4.17 186 4.20 174 4.20
 199  0.169  0.734  0.966-  55 3.21 200 3.58 236 3.58 188 3.58 164 3.59  65 3.81 197 3.97 125 3.98
                           223 4.19 235 4.20 175 4.21 187 4.22
 200  0.169  0.901  0.921- 137 3.56 197 3.56 199 3.58 173 3.58 175 3.59 221 3.59 139 3.59 223 3.59
                           198 4.09 224 4.18 236 4.18 176 4.21 188 4.21
 201  0.837  0.401  0.502- 132 3.55 180 3.57 168 3.57 204 3.57 202 3.57 178 3.58 130 3.58 166 3.59
                           203 4.10 213 4.18 153 4.18 129 4.21
 202  0.835  0.568  0.457- 111 3.03 201 3.57 213 3.58 153 3.59 225 3.60 204 3.99 214 4.18 154 4.20
                           178 4.20 130 4.22
 203  0.838  0.400  0.594- 206 3.62 134 3.62 170 3.63 182 3.63 168 3.64 132 3.64 204 3.65 180 3.65
                           201 4.10 205 4.13 155 4.17 215 4.20 131 4.20
 204  0.835  0.569  0.547- 213 3.56 225 3.57 201 3.57 153 3.59 227 3.64 203 3.65 215 3.65 155 3.65
                           202 3.99 216 4.15 206 4.19 156 4.19 180 4.21
 205  0.836  0.402  0.688- 134 3.60 206 3.60 182 3.61 170 3.62 136 3.63 184 3.63 208 3.64 172 3.64
                           203 4.13 207 4.16 217 4.16 157 4.18
 206  0.836  0.568  0.641- 205 3.60 217 3.61 203 3.62 229 3.62 157 3.62 227 3.63 215 3.63 155 3.64
                           208 4.16 218 4.17 204 4.19 158 4.19 134 4.21 182 4.21
 207  0.836  0.401  0.782- 172 3.60 184 3.61 174 3.62 208 3.62 136 3.62 210 3.63 186 3.63 138 3.63
                           205 4.16 219 4.17 209 4.19 159 4.19 135 4.21 183 4.22
 208  0.836  0.569  0.735- 159 3.60 231 3.60 219 3.61 207 3.62 157 3.63 217 3.63 229 3.64 205 3.64
                           210 4.13 206 4.16 220 4.16 160 4.18
 209  0.835  0.402  0.876- 188 3.56 212 3.57 176 3.57 140 3.59 210 3.64 138 3.64 174 3.65 186 3.65
                           211 3.99 221 4.15 207 4.19 161 4.19 185 4.21
 210  0.838  0.567  0.828- 231 3.62 159 3.62 207 3.63 219 3.63 209 3.64 161 3.64 221 3.65 233 3.65
                           212 4.10 208 4.13 162 4.17 222 4.19 138 4.20
 211  0.835  0.401  0.966- 101 3.25 176 3.57 188 3.58 140 3.59 212 3.60  91 3.60 209 3.99 223 4.18
                           163 4.20 187 4.20 139 4.20
 212  0.837  0.568  0.921- 161 3.55 221 3.56 209 3.57 233 3.57 235 3.57 163 3.58 223 3.58 211 3.60
                           210 4.10 224 4.17 164 4.18 140 4.21
 213  0.502  0.733  0.502- 192 3.55 204 3.56 216 3.57 180 3.57 178 3.58 190 3.58 202 3.58 214 3.59
                           215 4.10 201 4.18 189 4.18 129 4.21
 214  0.504  0.899  0.457-  32 3.27 141 3.58 225 3.58 129 3.59 213 3.59  39 3.60 216 3.99  75 4.04
                           202 4.18 190 4.20 226 4.20 130 4.21
 215  0.501  0.733  0.595- 182 3.62 194 3.62 218 3.63 206 3.63 216 3.64 192 3.64 204 3.65 180 3.65
                           213 4.10 217 4.13 191 4.17 203 4.20 131 4.20
 216  0.504  0.898  0.547- 225 3.56 213 3.57 141 3.57 129 3.58 215 3.64 131 3.65 143 3.65 227 3.65
                           214 3.99 204 4.15 218 4.19 192 4.19 228 4.21
 217  0.503  0.732  0.688- 194 3.60 182 3.60 206 3.61 218 3.62 196 3.63 208 3.63 220 3.64 184 3.64
                           215 4.13 205 4.16 219 4.16 193 4.18
 218  0.503  0.899  0.641- 145 3.60 229 3.61 143 3.62 217 3.62 133 3.62 215 3.63 227 3.63 131 3.64
                           220 4.16 206 4.17 216 4.19 194 4.19 134 4.21 230 4.21
 219  0.503  0.733  0.782- 220 3.60 208 3.61 222 3.62 196 3.62 184 3.62 186 3.63 210 3.63 198 3.63
                           217 4.16 207 4.17 221 4.19 195 4.19 135 4.21 231 4.21
 220  0.503  0.899  0.735- 135 3.60 219 3.60 231 3.61 147 3.62 133 3.63 229 3.63 217 3.64 145 3.64
                           222 4.13 218 4.16 208 4.16 196 4.18
 221  0.504  0.732  0.876- 212 3.56 188 3.57 224 3.57 200 3.59 186 3.64 198 3.65 210 3.65 222 3.65
                           223 3.99 209 4.15 219 4.19 197 4.19 233 4.21
 222  0.501  0.900  0.828- 219 3.62 135 3.63 147 3.63 231 3.63 149 3.64 137 3.65 233 3.65 221 3.65
                           224 4.10 220 4.13 198 4.17 210 4.19 138 4.20
 223  0.503  0.733  0.966- 103 3.30 224 3.58 212 3.58 200 3.59 188 3.59  65 3.65 221 3.99  77 4.07
                           211 4.18 199 4.19 235 4.20 139 4.22
 224  0.502  0.899  0.921- 137 3.55 233 3.56 149 3.57 221 3.57 223 3.58 235 3.58 139 3.59 151 3.59
                           222 4.10 212 4.17 200 4.18 140 4.21
 225  0.837  0.735  0.502- 156 3.55 216 3.56 204 3.57 228 3.57 226 3.57 214 3.58 154 3.58 202 3.60
                           227 4.09 141 4.17 189 4.18 153 4.21
 226  0.835  0.901  0.457- 123 3.22 225 3.57 141 3.58 189 3.59 165 3.60 228 3.99 142 4.18 190 4.20
                           214 4.20 154 4.21
 227  0.838  0.734  0.595- 230 3.62 158 3.62 206 3.63 218 3.63 204 3.64 156 3.65 228 3.65 216 3.65
                           225 4.09 229 4.14 191 4.17 143 4.19 155 4.20
 228  0.835  0.902  0.547- 141 3.56 165 3.57 225 3.57 189 3.59 167 3.64 227 3.65 191 3.65 143 3.65
                           226 3.99 144 4.15 230 4.19 192 4.19 216 4.21
 229  0.836  0.735  0.688- 158 3.60 230 3.60 218 3.61 206 3.62 160 3.63 220 3.63 208 3.64 232 3.64
                           227 4.14 231 4.16 145 4.16 193 4.18
 230  0.836  0.901  0.641- 229 3.60 145 3.61 227 3.62 169 3.62 193 3.62 167 3.63 191 3.63 143 3.63
                           232 4.16 146 4.17 228 4.19 194 4.19 158 4.21 218 4.21
 231  0.836  0.735  0.782- 208 3.60 220 3.61 210 3.62 232 3.62 160 3.62 234 3.63 222 3.63 162 3.63
                           229 4.16 147 4.17 233 4.19 195 4.19 159 4.21 219 4.21
 232  0.836  0.902  0.735- 195 3.60 171 3.60 147 3.61 231 3.62 193 3.63 145 3.64 169 3.64 229 3.64
                           234 4.13 230 4.16 148 4.16 196 4.18
 233  0.835  0.736  0.876- 224 3.56 236 3.57 212 3.57 164 3.59 234 3.64 210 3.65 162 3.65 222 3.65
                           235 3.99 149 4.15 231 4.19 197 4.19 221 4.21
 234  0.838  0.901  0.828- 171 3.62 195 3.62 231 3.63 147 3.63 233 3.64 197 3.65 149 3.65 173 3.65
                           236 4.09 232 4.13 198 4.17 150 4.20 162 4.20
 235  0.835  0.735  0.966- 113 3.09 212 3.57 224 3.58 164 3.59 236 3.59 115 3.87 233 3.99 151 4.17
                           199 4.20 223 4.20 163 4.21
 236  0.837  0.901  0.921- 197 3.55 149 3.56 233 3.57 173 3.57 175 3.58 151 3.58 199 3.58 235 3.59
                           234 4.09 152 4.17 200 4.18 164 4.21
 237  0.403  0.054  0.035-  77 2.23  41 2.23  34 2.23 115 2.23  33 2.24
 238  0.403  0.054  0.136-  78 2.23  44 2.23  36 2.23 118 2.23  35 2.26  33 2.26
 239  0.403  0.054  0.238-  47 2.23  79 2.23  38 2.23 121 2.23  37 2.26  35 2.26
 240  0.403  0.054  0.340-  39 2.22  50 2.23  80 2.23  40 2.23 124 2.23  37 2.26
 241  0.403  0.304  0.035-  43 2.23  82 2.23  41 2.23  53 2.23  42 2.24
 242  0.403  0.304  0.136-  46 2.23  84 2.23  44 2.23  56 2.23  45 2.26  42 2.26
 243  0.403  0.304  0.238-  86 2.22  49 2.22  47 2.23  59 2.23  48 2.26  45 2.26
 244  0.403  0.304  0.340-  51 2.22  88 2.23  52 2.23  62 2.23  50 2.23  48 2.26
 245  0.403  0.554  0.035-  53 2.23  65 2.23  55 2.23  91 2.23  54 2.24
 246  0.403  0.554  0.136-  56 2.23  68 2.23  58 2.23  94 2.23  57 2.26  54 2.26
 247  0.403  0.554  0.238-  59 2.23  71 2.23  97 2.23  61 2.23  60 2.26  57 2.26
 248  0.403  0.554  0.340-  63 2.22  74 2.23  62 2.23  64 2.23 100 2.23  60 2.26
 249  0.403  0.804  0.035-  67 2.23 103 2.23  65 2.23  77 2.23  66 2.24
 250  0.403  0.804  0.136-  70 2.23 106 2.23  78 2.23  68 2.23  69 2.26  66 2.26
 251  0.403  0.804  0.238-  73 2.22 109 2.22  79 2.23  71 2.23  72 2.26  69 2.26
 252  0.403  0.804  0.340-  75 2.22  76 2.23 112 2.23  80 2.23  74 2.23  72 2.26
 253  0.903  0.054  0.035- 125 2.23  89 2.23  82 2.23  67 2.23  81 2.24
 254  0.903  0.054  0.136- 126 2.23  92 2.23  84 2.23  70 2.23  83 2.26  81 2.26
 255  0.903  0.054  0.238-  95 2.23 127 2.23  86 2.23  73 2.23  85 2.26  83 2.26
 256  0.903  0.054  0.340-  87 2.22  98 2.23 128 2.23  88 2.23  76 2.23  85 2.26
 257  0.903  0.304  0.035-  91 2.23  34 2.23  89 2.23 101 2.23  90 2.24
 258  0.903  0.304  0.136-  94 2.23  36 2.23  92 2.23 104 2.23  93 2.26  90 2.26
 259  0.903  0.304  0.238-  38 2.22  97 2.22  95 2.23 107 2.23  96 2.26  93 2.26
 260  0.903  0.304  0.340-  99 2.22  40 2.23 100 2.23 110 2.23  98 2.23  96 2.26
 261  0.903  0.554  0.035- 101 2.23 113 2.23 103 2.23  43 2.23 102 2.24
 262  0.903  0.554  0.136- 104 2.23 116 2.23 106 2.23  46 2.23 105 2.26 102 2.26
 263  0.903  0.554  0.238- 107 2.23 119 2.23  49 2.23 109 2.23 108 2.26 105 2.26
 264  0.903  0.554  0.340- 111 2.22 110 2.23 122 2.23 112 2.23  52 2.23 108 2.26
 265  0.903  0.804  0.035- 115 2.23  55 2.23 113 2.23 125 2.23 114 2.24
 266  0.903  0.804  0.136- 118 2.23  58 2.23 126 2.23 116 2.23 117 2.26 114 2.26
 267  0.903  0.804  0.238- 121 2.22  61 2.22 127 2.23 119 2.23 120 2.26 117 2.26
 268  0.903  0.804  0.340- 123 2.22 124 2.23  64 2.23 128 2.23 122 2.23 120 2.26
 

IMPORTANT INFORMATION: All symmetrisations will be switched off!
NOSYMM: (Re-)initialisation of all symmetry stuff for point group C_1.


----------------------------------------------------------------------------------------

                                     Primitive cell                                     

  volume of cell :    7034.4394

  direct lattice vectors                    reciprocal lattice vectors
    -8.907327300  8.907327300  0.000000000     0.000000000  0.112267122  0.000000000
   -17.814654600  0.000000000  0.000000000    -0.056133561 -0.056133561  0.000000000
     0.000000000  0.000000000 44.330709030     0.000000000  0.000000000  0.022557726

  length of vectors
    12.596863072 17.814654600 44.330709030     0.112267122  0.079384843  0.022557726

  position of ions in fractional coordinates (direct lattice)
     0.152847720  0.053510360  0.084694590
     0.152846520  0.053512080  0.187388640
     0.152845430  0.053512450  0.289172080
     0.152847980  0.053510470  0.389797690
     0.152847750  0.303510720  0.084718220
     0.152847470  0.303512120  0.187380880
     0.152850080  0.303510960  0.289140730
     0.152848150  0.303510380  0.389846890
     0.152847860  0.553510120  0.084694600
     0.152849740  0.553511080  0.187388050
     0.152849400  0.553511930  0.289172630
     0.152847880  0.553510700  0.389797780
     0.152847810  0.803510550  0.084718170
     0.152844740  0.803512480  0.187380150
     0.152846930  0.803511880  0.289141330
     0.152847630  0.803511030  0.389846900
     0.652847720  0.053510360  0.084694590
     0.652846520  0.053512080  0.187388650
     0.652845430  0.053512450  0.289172090
     0.652847980  0.053510470  0.389797690
     0.652847750  0.303510720  0.084718220
     0.652847460  0.303512120  0.187380880
     0.652850070  0.303510950  0.289140740
     0.652848130  0.303510380  0.389846880
     0.652847860  0.553510120  0.084694600
     0.652849740  0.553511080  0.187388050
     0.652849390  0.553511940  0.289172640
     0.652847880  0.553510700  0.389797760
     0.652847810  0.803510550  0.084718170
     0.652844740  0.803512480  0.187380140
     0.652846930  0.803511880  0.289141330
     0.652847650  0.803511030  0.389846890
     0.402848550  0.053509070  0.085449900
     0.152649870  0.178576880  0.033845180
     0.402848080  0.053510900  0.187423410
     0.152820290  0.179724080  0.136456860
     0.402848520  0.053509260  0.289209900
     0.152625450  0.178375900  0.238357500
     0.402850120  0.053508440  0.390164080
     0.152776080  0.177770440  0.340267030
     0.403042010  0.178378690  0.033836630
     0.402849740  0.303508280  0.085497880
     0.153054270  0.428438360  0.033845170
     0.405407090  0.177187730  0.136316470
     0.402845830  0.303519080  0.187397800
     0.152840540  0.427322920  0.136456840
     0.402497300  0.178600260  0.238347860
     0.402848310  0.303509030  0.289261390
     0.153068630  0.428655200  0.238357410
     0.401166630  0.179352470  0.340227350
     0.402849510  0.303508940  0.390321520
     0.152922320  0.429249750  0.340266850
     0.402648640  0.428662500  0.033841900
     0.402848820  0.553508650  0.085450210
     0.152649940  0.678576870  0.033845200
     0.400279960  0.429838850  0.136315650
     0.402846690  0.553509710  0.187423850
     0.152821250  0.679723790  0.136457000
     0.403208170  0.428425270  0.238348880
     0.402835580  0.553512390  0.289207800
     0.152624530  0.678376580  0.238357230
     0.404531160  0.427665860  0.340226590
     0.402849820  0.553508850  0.390164450
     0.152775680  0.677770600  0.340266860
     0.403041980  0.678378650  0.033836640
     0.402849960  0.803507940  0.085497550
     0.153054370  0.928438290  0.033845140
     0.405408020  0.677185430  0.136316470
     0.402845680  0.803510570  0.187397220
     0.152839430  0.927323250  0.136456330
     0.402497290  0.678600440  0.238347880
     0.402849620  0.803510210  0.289260720
     0.153069690  0.928652920  0.238357720
     0.401165780  0.679353900  0.340227000
     0.402849280  0.803509290  0.390321060
     0.152922700  0.929249170  0.340266530
     0.402648720  0.928662410  0.033841880
     0.400280780  0.929838690  0.136315730
     0.403206810  0.928415880  0.238345020
     0.404532010  0.927665480  0.340226570
     0.902848520  0.053509080  0.085449890
     0.652649850  0.178576890  0.033845180
     0.902848060  0.053510910  0.187423410
     0.652820290  0.179724100  0.136456860
     0.902848410  0.053509280  0.289209900
     0.652625440  0.178375900  0.238357490
     0.902850280  0.053508340  0.390164070
     0.652776080  0.177770440  0.340267050
     0.903042010  0.178378680  0.033836590
     0.902849730  0.303508270  0.085497860
     0.653054240  0.428438370  0.033845140
     0.905407110  0.177187710  0.136316460
     0.902845850  0.303519060  0.187397790
     0.652840560  0.427322900  0.136456820
     0.902497320  0.178600240  0.238347870
     0.902848250  0.303509060  0.289261400
     0.653068650  0.428655190  0.238357410
     0.901166490  0.179352530  0.340227340
     0.902849650  0.303508830  0.390321530
     0.652922310  0.429249770  0.340266900
     0.902648670  0.428662480  0.033841860
     0.902848800  0.553508650  0.085450200
     0.652649950  0.678576870  0.033845190
     0.900279960  0.429838840  0.136315620
     0.902846630  0.553509720  0.187423850
     0.652821250  0.679723810  0.136456990
     0.903208190  0.428425260  0.238348880
     0.902835570  0.553512410  0.289207800
     0.652624530  0.678376570  0.238357230
     0.904531030  0.427665930  0.340226610
     0.902850040  0.553508760  0.390164450
     0.652775680  0.677770560  0.340266870
     0.903042020  0.678378630  0.033836610
     0.902849930  0.803507940  0.085497540
     0.653054350  0.928438300  0.033845130
     0.905407980  0.677185440  0.136316470
     0.902845680  0.803510560  0.187397230
     0.652839440  0.927323220  0.136456330
     0.902497300  0.678600430  0.238347890
     0.902849580  0.803510220  0.289260740
     0.653069700  0.928652920  0.238357730
     0.901165620  0.679353980  0.340227020
     0.902849490  0.803509180  0.390321080
     0.652922710  0.929249170  0.340266590
     0.902648720  0.928662410  0.033841860
     0.900280770  0.929838700  0.136315720
     0.903206830  0.928415870  0.238345010
     0.904531890  0.927665540  0.340226580
     0.169462540  0.067019660  0.501996100
     0.169867810  0.233202940  0.456740110
     0.169433310  0.067106080  0.594190620
     0.169583200  0.233604910  0.546290700
     0.169452350  0.067063740  0.688049720
     0.169411440  0.233787630  0.641964130
     0.169411670  0.066996510  0.780930540
     0.169516260  0.233681460  0.734855100
     0.169601880  0.066933460  0.876626440
     0.169457610  0.233638520  0.828723850
     0.169243320  0.067521490  0.966146940
     0.169467120  0.233749390  0.920942590
     0.502389000  0.066067280  0.502137900
     0.503443740  0.232882220  0.456829160
     0.500876300  0.066866090  0.594527500
     0.504338570  0.231609370  0.546876600
     0.503018080  0.065421820  0.687722440
     0.503273080  0.232663130  0.641347370
     0.503343520  0.065998240  0.781565370
     0.502921500  0.232116410  0.735136210
     0.504280440  0.065004530  0.876016820
     0.500790730  0.233661680  0.828384740
     0.503795920  0.065961050  0.966080450
     0.502334000  0.232704710  0.920778310
     0.169454830  0.400282430  0.501922270
     0.169535400  0.566823660  0.456817560
     0.169480800  0.400353940  0.594179290
     0.169396250  0.567089280  0.546259690
     0.169543290  0.400335540  0.688038490
     0.169356990  0.567180960  0.641932110
     0.169375960  0.400402680  0.780977160
     0.169567860  0.567034980  0.734842790
     0.169446970  0.400391470  0.876628770
     0.169589990  0.566973860  0.828701550
     0.169452560  0.400490420  0.966163410
     0.169427150  0.567111730  0.920926240
     0.836538420  0.068022760  0.502160780
     0.835237600  0.234653280  0.456819350
     0.838210680  0.067104770  0.594525720
     0.834466960  0.235845300  0.546884670
     0.835844900  0.068600110  0.687776970
     0.835674340  0.234740650  0.641354320
     0.835702100  0.068031040  0.781538280
     0.835886850  0.235270950  0.735137020
     0.834645980  0.069213030  0.876030710
     0.838044480  0.233849050  0.828382700
     0.835264110  0.068060140  0.966048340
     0.836477450  0.234835610  0.920758230
     0.502321260  0.399428870  0.502128150
     0.503706960  0.566016800  0.456825480
     0.500857140  0.400192470  0.594516880
     0.504144860  0.565040010  0.546842100
     0.502934010  0.398793500  0.687727090
     0.503247390  0.565993300  0.641351700
     0.503172970  0.399361740  0.781559280
     0.502910510  0.565449770  0.735143460
     0.504364950  0.398310020  0.876016240
     0.500817010  0.566934720  0.828365340
     0.503463490  0.399509460  0.966085100
     0.502304140  0.566186480  0.920778460
     0.169328910  0.733845620  0.501983760
     0.169604870  0.900172020  0.456805470
     0.169371820  0.733774730  0.594186350
     0.169639200  0.900261730  0.546268880
     0.169514080  0.733718290  0.688044620
     0.169552880  0.900392350  0.641946660
     0.169374720  0.733827450  0.780960040
     0.169543940  0.900313900  0.734856740
     0.169694220  0.733579090  0.876616560
     0.169521060  0.900313670  0.828694050
     0.169263730  0.734159780  0.966150470
     0.169336630  0.900531120  0.920906510
     0.836796790  0.401225180  0.502114860
     0.835437330  0.567887550  0.456804110
     0.838101570  0.400489140  0.594498040
     0.834516710  0.569165610  0.546877640
     0.835871740  0.401962800  0.687764090
     0.835550530  0.568201650  0.641339380
     0.835717460  0.401429560  0.781556830
     0.835913180  0.568601180  0.735133100
     0.834708170  0.402478740  0.876003230
     0.838054560  0.567259710  0.828395600
     0.835327860  0.401310960  0.966113890
     0.836646690  0.568033570  0.920780360
     0.502382590  0.732728660  0.502118550
     0.503754900  0.899324060  0.456808900
     0.500890910  0.733491460  0.594537960
     0.504122940  0.898366930  0.546865590
     0.502937610  0.732112280  0.687746770
     0.503242230  0.899357700  0.641366490
     0.503342080  0.732695690  0.781590770
     0.502898940  0.898790610  0.735136090
     0.504300300  0.731642210  0.876002440
     0.500965860  0.900208250  0.828358190
     0.503488250  0.732831070  0.966089990
     0.502421470  0.899370580  0.920751600
     0.836510980  0.734672530  0.502141020
     0.835224340  0.901278220  0.456831520
     0.838007740  0.733930160  0.594501370
     0.834573330  0.902474810  0.546886470
     0.835866500  0.735285200  0.687784180
     0.835746570  0.901360370  0.641315630
     0.835750260  0.734783020  0.781558390
     0.835924940  0.901921150  0.735136900
     0.834677790  0.735832250  0.876008660
     0.838117920  0.900553880  0.828395460
     0.835306920  0.734731610  0.966077350
     0.836597240  0.901342500  0.920748510
     0.402848680  0.053509270  0.034860040
     0.402821780  0.053524220  0.136459760
     0.402843480  0.053520920  0.238323200
     0.402847850  0.053510460  0.340175630
     0.402850670  0.303508380  0.034877530
     0.402822920  0.303523330  0.136472870
     0.402849860  0.303509020  0.238337080
     0.402849490  0.303508880  0.340221360
     0.402848760  0.553509180  0.034860140
     0.402823190  0.553522540  0.136459460
     0.402848270  0.553507740  0.238322550
     0.402848740  0.553509750  0.340175430
     0.402850540  0.803508500  0.034877420
     0.402821800  0.803523510  0.136471880
     0.402843860  0.803520710  0.238336460
     0.402847670  0.803511070  0.340221640
     0.902848690  0.053509270  0.034860030
     0.902821770  0.053524220  0.136459760
     0.902843470  0.053520920  0.238323190
     0.902847840  0.053510460  0.340175620
     0.902850670  0.303508380  0.034877520
     0.902822920  0.303523320  0.136472850
     0.902849860  0.303509020  0.238337080
     0.902849480  0.303508880  0.340221370
     0.902848770  0.553509170  0.034860130
     0.902823180  0.553522540  0.136459450
     0.902848270  0.553507740  0.238322550
     0.902848750  0.553509740  0.340175440
     0.902850530  0.803508500  0.034877420
     0.902821800  0.803523500  0.136471880
     0.902843860  0.803520710  0.238336460
     0.902847670  0.803511070  0.340221650

  ion indices of the primitive-cell ions
   primitive index   ion index
                 1           1
                 2           2
                 3           3
                 4           4
                 5           5
                 6           6
                 7           7
                 8           8
                 9           9
                10          10
                11          11
                12          12
                13          13
                14          14
                15          15
                16          16
                17          17
                18          18
                19          19
                20          20
                21          21
                22          22
                23          23
                24          24
                25          25
                26          26
                27          27
                28          28
                29          29
                30          30
                31          31
                32          32
                33          33
                34          34
                35          35
                36          36
                37          37
                38          38
                39          39
                40          40
                41          41
                42          42
                43          43
                44          44
                45          45
                46          46
                47          47
                48          48
                49          49
                50          50
                51          51
                52          52
                53          53
                54          54
                55          55
                56          56
                57          57
                58          58
                59          59
                60          60
                61          61
                62          62
                63          63
                64          64
                65          65
                66          66
                67          67
                68          68
                69          69
                70          70
                71          71
                72          72
                73          73
                74          74
                75          75
                76          76
                77          77
                78          78
                79          79
                80          80
                81          81
                82          82
                83          83
                84          84
                85          85
                86          86
                87          87
                88          88
                89          89
                90          90
                91          91
                92          92
                93          93
                94          94
                95          95
                96          96
                97          97
                98          98
                99          99
               100         100
               101         101
               102         102
               103         103
               104         104
               105         105
               106         106
               107         107
               108         108
               109         109
               110         110
               111         111
               112         112
               113         113
               114         114
               115         115
               116         116
               117         117
               118         118
               119         119
               120         120
               121         121
               122         122
               123         123
               124         124
               125         125
               126         126
               127         127
               128         128
               129         129
               130         130
               131         131
               132         132
               133         133
               134         134
               135         135
               136         136
               137         137
               138         138
               139         139
               140         140
               141         141
               142         142
               143         143
               144         144
               145         145
               146         146
               147         147
               148         148
               149         149
               150         150
               151         151
               152         152
               153         153
               154         154
               155         155
               156         156
               157         157
               158         158
               159         159
               160         160
               161         161
               162         162
               163         163
               164         164
               165         165
               166         166
               167         167
               168         168
               169         169
               170         170
               171         171
               172         172
               173         173
               174         174
               175         175
               176         176
               177         177
               178         178
               179         179
               180         180
               181         181
               182         182
               183         183
               184         184
               185         185
               186         186
               187         187
               188         188
               189         189
               190         190
               191         191
               192         192
               193         193
               194         194
               195         195
               196         196
               197         197
               198         198
               199         199
               200         200
               201         201
               202         202
               203         203
               204         204
               205         205
               206         206
               207         207
               208         208
               209         209
               210         210
               211         211
               212         212
               213         213
               214         214
               215         215
               216         216
               217         217
               218         218
               219         219
               220         220
               221         221
               222         222
               223         223
               224         224
               225         225
               226         226
               227         227
               228         228
               229         229
               230         230
               231         231
               232         232
               233         233
               234         234
               235         235
               236         236
               237         237
               238         238
               239         239
               240         240
               241         241
               242         242
               243         243
               244         244
               245         245
               246         246
               247         247
               248         248
               249         249
               250         250
               251         251
               252         252
               253         253
               254         254
               255         255
               256         256
               257         257
               258         258
               259         259
               260         260
               261         261
               262         262
               263         263
               264         264
               265         265
               266         266
               267         267
               268         268

----------------------------------------------------------------------------------------

 
 -----------------------------------------------------------------------------
|                                                                             |
|           W    W    AA    RRRRR   N    N  II  N    N   GGGG   !!!           |
|           W    W   A  A   R    R  NN   N  II  NN   N  G    G  !!!           |
|           W    W  A    A  R    R  N N  N  II  N N  N  G       !!!           |
|           W WW W  AAAAAA  RRRRR   N  N N  II  N  N N  G  GGG   !            |
|           WW  WW  A    A  R   R   N   NN  II  N   NN  G    G                |
|           W    W  A    A  R    R  N    N  II  N    N   GGGG   !!!           |
|                                                                             |
|     The requested file  could not be found or opened for reading            |
|     k-point information. Automatic k-point generation is used as a          |
|     fallback, which may lead to unwanted results.                           |
|                                                                             |
 -----------------------------------------------------------------------------

 

Automatic generation of k-mesh.
 Grid dimensions derived from KSPACING:
 generate k-points for:    2    1    1

 Generating k-lattice:

  Cartesian coordinates                     Fractional coordinates (reciprocal lattice)
     0.000000000  0.056133561  0.000000000     0.500000000  0.000000000  0.000000000
    -0.056133561 -0.056133561  0.000000000     0.000000000  1.000000000  0.000000000
     0.000000000  0.000000000  0.022557726     0.000000000  0.000000000  1.000000000

  Length of vectors
     0.056133561  0.079384843  0.022557726

  Shift w.r.t. Gamma in fractional coordinates (k-lattice)
     0.000000000  0.000000000  0.000000000

 
 Subroutine IBZKPT returns following result:
 ===========================================
 
 Found      2 irreducible k-points:
 
 Following reciprocal coordinates:
            Coordinates               Weight
  0.000000  0.000000  0.000000      1.000000
  0.500000  0.000000  0.000000      1.000000
 
 Following cartesian coordinates:
            Coordinates               Weight
  0.000000  0.000000  0.000000      1.000000
  0.000000  0.056134  0.000000      1.000000
 


--------------------------------------------------------------------------------------------------------




 Dimension of arrays:
   k-points           NKPTS =      2   k-points in BZ     NKDIM =      2   number of bands    NBANDS=    448
   number of dos      NEDOS =    301   number of ions     NIONS =    268
   non local maximal  LDIM  =      4   non local SUM 2l+1 LMDIM =      8
   total plane-waves  NPLWV = ******
   max r-space proj   IRMAX =   2071   max aug-charges    IRDMAX=   9128
   dimension x,y,z NGX =    64 NGY =   90 NGZ =  224
   dimension x,y,z NGXF=   128 NGYF=  180 NGZF=  448
   support grid    NGXF=   128 NGYF=  180 NGZF=  448
   ions per type =              32 204  32
   NGX,Y,Z   is equivalent  to a cutoff of   8.45,  8.40,  8.40 a.u.
   NGXF,Y,Z  is equivalent  to a cutoff of  16.89, 16.80, 16.80 a.u.

 SYSTEM =  unknown system                          
 POSCAR =  Cl Na  O                                

 Startparameter for this run:
   NWRITE =      1    write-flag & timer
   PREC   = normal    normal or accurate (medium, high low for compatibility)
   ISTART =      0    job   : 0-new  1-cont  2-samecut
   ICHARG =      2    charge: 1-file 2-atom 10-const
   ISPIN  =      1    spin polarized calculation?
   LNONCOLLINEAR =      F non collinear calculations
   LSORBIT =      F    spin-orbit coupling
   INIWAV =      1    electr: 0-lowe 1-rand  2-diag
   LASPH  =      T    aspherical Exc in radial PAW
 Electronic Relaxation 1
   ENCUT  =  400.0 eV  29.40 Ry    5.42 a.u.  20.54 29.05 72.29*2*pi/ulx,y,z
   ENINI  =  400.0     initial cutoff
   ENAUG  =  605.4 eV  augmentation charge cutoff
   NELM   =    150;   NELMIN=  2; NELMDL= -5     # of ELM steps 
   EDIFF  = 0.1E-07   stopping-criterion for ELM
   LREAL  =      T    real-space projection
   NLSPLINE    = F    spline interpolate recip. space projectors
   LCOMPAT=      F    compatible to vasp.4.4
   GGA_COMPAT  = T    GGA compatible to vasp.4.4-vasp.4.6
   LMAXPAW     = -100 max onsite density
   LMAXMIX     =    6 max onsite mixed and CHGCAR
   VOSKOWN=      0    Vosko Wilk Nusair interpolation
   ROPT   =   -0.00050  -0.00050  -0.00050
 Ionic relaxation
   EDIFFG = -.1E-01   stopping-criterion for IOM
   NSW    =      0    number of steps for IOM
   NBLOCK =      1;   KBLOCK =      1    inner block; outer block 
   IBRION =     -1    ionic relax: 0-MD 1-quasi-New 2-CG
   NFREE  =      0    steps in history (QN), initial steepest desc. (CG)
   ISIF   =      3    stress and relaxation
   IWAVPR =     10    prediction:  0-non 1-charg 2-wave 3-comb
   ISYM   =      0    0-nonsym 1-usesym 2-fastsym
   LCORR  =      T    Harris-Foulkes like correction to forces

   POTIM  = 0.5000    time-step for ionic-motion
   TEIN   =    0.0    initial temperature
   TEBEG  =    0.0;   TEEND  =   0.0 temperature during run
   SMASS  =  -3.00    Nose mass-parameter (am)
   estimated Nose-frequenzy (Omega)   =  0.10E-29 period in steps = 0.13E+47 mass=  -0.363E-26a.u.
   SCALEE = 1.0000    scale energy and forces
   NPACO  =    256;   APACO  = 16.0  distance and # of slots for P.C.
   PSTRESS=    0.0 pullay stress

  Mass of Ions in am
   POMASS =  35.45 22.99 16.00
  Ionic Valenz
   ZVAL   =   7.00  1.00  6.00
  Atomic Wigner-Seitz radii
   RWIGS  =  -1.00 -1.00 -1.00
  virtual crystal weights 
   VCA    =   1.00  1.00  1.00
   NELECT =     620.0000    total number of electrons
   NUPDOWN=      -1.0000    fix difference up-down

 DOS related values:
   EMIN   =  10.00;   EMAX   =-10.00  energy-range for DOS
   EFERMI =   0.00
   ISMEAR =     0;   SIGMA  =   0.10  broadening in eV -4-tet -1-fermi 0-gaus

 Electronic relaxation 2 (details)
   IALGO  =     68    algorithm
   LDIAG  =      T    sub-space diagonalisation (order eigenvalues)
   LSUBROT=      F    optimize rotation matrix (better conditioning)
   TURBO    =      0    0=normal 1=particle mesh
   IRESTART =      0    0=no restart 2=restart with 2 vectors
   NREBOOT  =      0    no. of reboots
   NMIN     =      0    reboot dimension
   EREF     =   0.00    reference energy to select bands
   IMIX   =      4    mixing-type and parameters
     AMIX     =   0.40;   BMIX     =  1.00
     AMIX_MAG =   1.60;   BMIX_MAG =  1.00
     AMIN     =   0.01
     WC   =   100.;   INIMIX=   1;  MIXPRE=   1;  MAXMIX= -45

 Intra band minimization:
   WEIMIN = 0.0000     energy-eigenvalue tresh-hold
   EBREAK =  0.56E-11  absolut break condition
   DEPER  =   0.30     relativ break condition  

   TIME   =   0.40     timestep for ELM

  volume/ion in A,a.u.               =      26.25       177.13
  Fermi-wavevector in a.u.,A,eV,Ry     =   0.728555  1.376769  7.221865  0.530792
  Thomas-Fermi vector in A             =   1.820057
 
 Write flags
   LWAVE        =      F    write WAVECAR
   LDOWNSAMPLE  =      F    k-point downsampling of WAVECAR
   LCHARG       =      F    write CHGCAR
   LVTOT        =      F    write LOCPOT, total local potential
   LVHAR        =      F    write LOCPOT, Hartree potential only
   LELF         =      F    write electronic localiz. function (ELF)
   LORBIT       =      0    0 simple, 1 ext, 2 COOP (PROOUT), +10 PAW based schemes


 Dipole corrections
   LMONO  =      F    monopole corrections only (constant potential shift)
   LDIPOL =      F    correct potential (dipole corrections)
   IDIPOL =      0    1-x, 2-y, 3-z, 4-all directions 
   EPSILON=  1.0000000 bulk dielectric constant

 Exchange correlation treatment:
   GGA     =    PE    GGA type
   LEXCH   =     8    internal setting for exchange type
   VOSKOWN=      0    Vosko Wilk Nusair interpolation
   LHFCALC =     F    Hartree Fock is set to
   LHFONE  =     F    Hartree Fock one center treatment
   AEXX    =    0.0000 exact exchange contribution

 Linear response parameters
   LEPSILON=     F    determine dielectric tensor
   LRPA    =     F    only Hartree local field effects (RPA)
   LNABLA  =     F    use nabla operator in PAW spheres
   LVEL    =     F    velocity operator in full k-point grid
   LINTERFAST=   F  fast interpolation
   KINTER  =     0    interpolate to denser k-point grid
   CSHIFT  =0.1000    complex shift for real part using Kramers Kronig
   OMEGAMAX=  -1.0    maximum frequency
   DEG_THRESHOLD= 0.2000000E-02 threshold for treating states as degnerate
   RTIME   =   -0.100 relaxation time in fs
  (WPLASMAI=    0.000 imaginary part of plasma frequency in eV, 0.658/RTIME)
   DFIELD  = 0.0000000 0.0000000 0.0000000 field for delta impulse in time
 
 Orbital magnetization related:
   ORBITALMAG=     F  switch on orbital magnetization
   LCHIMAG   =     F  perturbation theory with respect to B field
   DQ        =  0.001000  dq finite difference perturbation B field
   LLRAUG    =     F  two centre corrections for induced B field



--------------------------------------------------------------------------------------------------------


 Static calculation
 charge density and potential will be updated during run
 non-spin polarized calculation
 RMM-DIIS sequential band-by-band and
  variant of blocked Davidson during initial phase
 perform sub-space diagonalisation
    before iterative eigenvector-optimisation
 modified Broyden-mixing scheme, WC =      100.0
 initial mixing is a Kerker type mixing with AMIX =  0.4000 and BMIX =      1.0000
 Hartree-type preconditioning will be used
 using additional bands          138
 real space projection scheme for non local part
 use partial core corrections
 calculate Harris-corrections to forces 
   (improved forces if not selfconsistent)
 use gradient corrections 
 use of overlap-Matrix (Vanderbilt PP)
 Gauss-broadening in eV      SIGMA  =   0.10


--------------------------------------------------------------------------------------------------------


  energy-cutoff  :      400.00
  volume of cell :     7034.44
      direct lattice vectors                 reciprocal lattice vectors
    -8.907327300  8.907327300  0.000000000     0.000000000  0.112267122  0.000000000
   -17.814654600  0.000000000  0.000000000    -0.056133561 -0.056133561  0.000000000
     0.000000000  0.000000000 44.330709030     0.000000000  0.000000000  0.022557726

  length of vectors
    12.596863072 17.814654600 44.330709030     0.112267122  0.079384843  0.022557726


 
 k-points in units of 2pi/SCALE and weight: read from INCAR                         
   0.00000000  0.00000000  0.00000000       0.500
   0.00000000  0.05613356  0.00000000       0.500
 
 k-points in reciprocal lattice and weights: read from INCAR                         
   0.00000000  0.00000000  0.00000000       0.500
   0.50000000  0.00000000  0.00000000       0.500
 
 position of ions in fractional coordinates (direct lattice) 
   0.15284772  0.05351036  0.08469459
   0.15284652  0.05351208  0.18738864
   0.15284543  0.05351245  0.28917208
   0.15284798  0.05351047  0.38979769
   0.15284775  0.30351072  0.08471822
   0.15284747  0.30351212  0.18738088
   0.15285008  0.30351096  0.28914073
   0.15284815  0.30351038  0.38984689
   0.15284786  0.55351012  0.08469460
   0.15284974  0.55351108  0.18738805
   0.15284940  0.55351193  0.28917263
   0.15284788  0.55351070  0.38979778
   0.15284781  0.80351055  0.08471817
   0.15284474  0.80351248  0.18738015
[...]
    -11.22286      3.56542      6.04297         0.028051     -0.002855      0.003920
    -13.44887      3.58829      8.30863         0.011248     -0.007370     -0.010803
    -13.47027      1.36123      6.04924        -0.003940      0.015731      0.004952
    -11.22376      3.59151     10.56617         0.023061     -0.004347      0.002059
    -13.44882      3.58819     12.82079         0.000251      0.004145      0.009898
    -13.44452      1.35948     10.56655        -0.007385     -0.000296     -0.001428
    -11.22201      3.60329     15.08249        -0.007050      0.022132     -0.017738
    -13.44888      3.58832     17.29627         0.082215     -0.057986     -0.043643
    -13.43507      1.36082     15.08427        -0.011434      0.010450     -0.017439
    -15.67511      3.59003      1.50000         0.042515      0.018265     -0.021665
    -17.90253      3.58832      3.79017         0.003238      0.009425      0.040098
    -17.90311      1.36331      1.50038         0.041164     -0.015754     -0.120105
    -15.67493      3.61110      6.04301        -0.015249     -0.001828      0.007257
    -17.90254      3.58828      8.30745         0.005543      0.002335     -0.003435
    -17.88133      1.36139      6.04921         0.016633     -0.009486      0.007083
    -15.67421      3.58518     10.56613        -0.019709     -0.010345      0.004944
    -17.90257      3.58831     12.82313         0.002252      0.006603      0.003306
    -17.90707      1.36344     10.56657         0.004052     -0.028099      0.007603
    -15.67577      3.57331     15.08250        -0.001962     -0.003480     -0.002397
    -17.90255      3.58831     17.30321         0.007784      0.064021      0.058120
    -17.91639      1.36213     15.08426        -0.016483     -0.003199     -0.001291
    -20.13032      3.58652      1.50023         0.007058      0.067972     -0.058879
    -20.13019      3.56543      6.04297         0.026902      0.002686      0.009194
    -20.13090      3.59150     10.56600         0.021387     -0.008533      0.006011
    -20.12934      3.60330     15.08249         0.000962     -0.009528     -0.000954
     -8.99521      8.04197      3.78805        -0.003525     -0.002955      0.043811
     -8.99465      5.81337      1.50038        -0.008942     -0.096876      0.014237
     -8.99524      8.04196      8.30861         0.010882     -0.007373     -0.008614
     -9.01661      5.81488      6.04923        -0.007103      0.013791      0.006917
     -8.99522      8.04197     12.82088         0.001433      0.004987      0.016056
     -8.99085      5.81315     10.56656        -0.005420      0.000885      0.000114
     -8.99522      8.04198     17.29625         0.017336     -0.038314      0.106159
     -8.98141      5.81449     15.08428         0.005471      0.024246     -0.012996
    -11.22145      8.04369      1.50000        -0.026957     -0.060566     -0.097875
    -13.44887      8.04198      3.79018        -0.005651      0.000211      0.041341
    -13.44945      5.81697      1.50038         0.001102     -0.062786      0.012024
    -11.22130      8.06476      6.04301        -0.017225     -0.005654      0.010195
    -13.44903      8.04194      8.30748         0.005430      0.002352     -0.003700
    -13.42767      5.81506      6.04923         0.014506     -0.010600      0.002626
    -11.22054      8.03884     10.56613        -0.018703     -0.008107      0.006365
    -13.44887      8.04196     12.82316         0.006498      0.010669      0.001586
    -13.45344      5.81710     10.56655         0.005604     -0.026851      0.005082
    -11.22209      8.02698     15.08252         0.010632      0.015795      0.005983
    -13.44888      8.04198     17.30323        -0.074870     -0.002830      0.025872
    -13.46273      5.81579     15.08427        -0.004908      0.004620     -0.015289
    -15.67666      8.04019      1.50023        -0.094744      0.036303      0.123591
    -17.90254      8.04197      3.78807        -0.008236      0.006148      0.041771
    -17.90198      5.81337      1.50038        -0.025736      0.129397      0.081389
    -15.67652      8.01909      6.04297         0.025638      0.000475      0.004621
    -17.90253      8.04195      8.30863         0.010817     -0.006825     -0.011912
    -17.92394      5.81489      6.04924        -0.007318      0.017998      0.005364
    -15.67742      8.04517     10.56617         0.024069     -0.006555      0.002657
    -17.90248      8.04185     12.82079         0.003923      0.000533      0.005225
    -17.89818      5.81314     10.56655        -0.005036     -0.001454     -0.000810
    -15.67567      8.05695     15.08249         0.011643      0.002681     -0.016173
    -17.90255      8.04198     17.29627        -0.051597      0.096654     -0.216951
    -17.88874      5.81449     15.08427         0.008775     -0.007120     -0.017286
    -20.12877      8.04369      1.50000         0.057689      0.081428      0.249437
    -22.35620      8.04198      3.79017         0.006813      0.003978      0.040872
    -22.35678      5.81697      1.50038         0.036876      0.026018      0.043221
    -20.12859      8.06477      6.04301        -0.015419     -0.001294      0.002981
    -22.35621      8.04194      8.30745         0.005792      0.002421     -0.005106
    -22.33500      5.81505      6.04921         0.015561     -0.009035      0.002200
    -20.12787      8.03884     10.56613        -0.019158     -0.010587      0.002164
    -22.35623      8.04198     12.82313        -0.000243      0.008864     -0.002849
    -22.36074      5.81711     10.56657         0.004694     -0.028351      0.004723
    -20.12943      8.02698     15.08251        -0.000013     -0.006368     -0.017823
    -22.35621      8.04198     17.30321         0.106798      0.050043     -0.093862
    -22.37005      5.81580     15.08426        -0.010902     -0.007704     -0.017810
    -24.58399      8.04019      1.50023         0.085902     -0.025552     -0.031894
    -24.58385      8.01910      6.04297         0.029035     -0.001302      0.007840
    -24.58457      8.04516     10.56600         0.020047     -0.005878      0.005389
    -24.58300      8.05696     15.08249        -0.013957      0.013264     -0.006217
     -2.70339      1.50946     22.25384        -0.011718     -0.000228      0.005637
     -5.66750      1.51307     20.24761        -0.120114     -0.031358     -0.117273
     -2.70467      1.50920     26.34089         0.004546      0.002773      0.012445
     -5.67212      1.51053     24.21745        -0.007624     -0.002164      0.022460
     -2.70408      1.50937     30.50173         0.001935      0.003604     -0.006714
     -5.67385      1.50900     28.45873         0.002825      0.003723     -0.010236
     -2.70252      1.50901     34.61920         0.003694     -0.001723      0.005985
     -5.67289      1.50994     32.57665        -0.000297     -0.000813      0.008536
     -2.70310      1.51070     38.86147        -0.007373     -0.002552     -0.012260
     -5.67160      1.50941     36.73792        -0.004126     -0.002637     -0.008778
     -2.71038      1.50751     42.82998        -0.017397      0.006162     -0.151129
     -5.67366      1.50950     40.82604        -0.012167      0.000174     -0.019365
     -5.65191      4.47494     22.26013         0.012661     -0.013659      0.001546
     -8.63305      4.48434     20.25156         0.088815      0.177426      0.299875
     -5.65267      4.46147     26.35583         0.001232     -0.000210      0.003927
     -8.61835      4.49231     24.24343        -0.011230     -0.004885      0.001007
     -5.64601      4.48055     30.48722        -0.007352      0.007928      0.005332
     -8.62763      4.48282     28.43138         0.011563      0.001207      0.004572
     -5.65918      4.48345     34.64735         0.002525     -0.001760     -0.002486
     -8.61476      4.47969     32.58911        -0.005973      0.008203     -0.001091
     -5.64982      4.49179     38.83445        -0.006205     -0.008744      0.000387
     -8.62331      4.46071     36.72288         0.002387      0.005129      0.002310
     -5.66255      4.48748     42.82703         0.160734     -0.111191      0.049049
     -8.62001      4.47445     40.81876        -0.006206      0.005356     -0.000469
     -8.64028      1.50939     22.25057        -0.008461      0.000924      0.012802
    -11.60788      1.51011     20.25105         0.045898     -0.024352     -0.193428
     -8.64179      1.50962     26.34039         0.004061      0.002484      0.013774
    -11.61137      1.50887     24.21608        -0.004313     -0.004202      0.024287
     -8.64202      1.51018     30.50123         0.000714      0.004207     -0.006545
    -11.61265      1.50852     28.45731        -0.000065      0.003400     -0.009927
     -8.64172      1.50869     34.62127         0.003881     -0.001942      0.003086
    -11.61193      1.51040     32.57610        -0.001818     -0.000635      0.007602
     -8.64216      1.50932     38.86157        -0.006924     -0.003089     -0.014488
    -11.61104      1.51059     36.73693        -0.006531     -0.001726     -0.010785
     -8.64397      1.50937     42.83071        -0.010145      0.043100     -0.131981
    -11.61204      1.50914     40.82531         0.005513      0.000147     -0.018881
     -8.66312      7.45132     22.26114        -0.009322      0.007182      0.003984
    -11.62000      7.43973     20.25113         0.077981     -0.090504      0.002737
     -8.66167      7.46622     26.35575         0.000050     -0.001407      0.002278
    -11.63437      7.43287     24.24379        -0.001390      0.004047      0.005096
     -8.66723      7.44514     30.48964         0.008275      0.001095      0.002331
    -11.62545      7.44362     28.43169        -0.012711      0.006387      0.003547
     -8.65582      7.44387     34.64615        -0.006059      0.006487     -0.003079
    -11.63679      7.44552     32.58915        -0.000220      0.000162     -0.003237
     -8.66747      7.43446     38.83506         0.008402      0.008899     -0.005283
    -11.63068      7.46474     36.72279        -0.006950     -0.004311      0.002822
     -8.65244      7.43997     42.82561        -0.090840      0.157187      0.306757
    -11.63429      7.45078     40.81787         0.010001     -0.007824     -0.012023
    -11.59003      4.47434     22.25970        -0.010216     -0.012855     -0.001052
    -14.57008      4.48668     20.25140        -0.147889      0.141295      0.114833
    -11.59059      4.46130     26.35535         0.000650      0.000925      0.002759
    -14.55658      4.49058     24.24190        -0.010100     -0.003117      0.006505
    -11.58417      4.47980     30.48743        -0.007091      0.006775      0.005186
    -14.56556      4.48259     28.43158         0.013989      0.000862      0.005255
    -11.59642      4.48193     34.64708         0.003009     -0.000144     -0.002153
    -14.55288      4.47959     32.58943        -0.005373      0.007509     -0.001631
    -11.58830      4.49254     38.83442        -0.008103     -0.009592      0.002517
    -14.56069      4.46094     36.72202         0.002398      0.005192      0.003704
    -11.60164      4.48451     42.82724        -0.077418     -0.026435     -0.114317
    -14.56060      4.47419     40.81876        -0.014429      0.008641     -0.006547
    -14.58147      1.50827     22.25330         0.012458      0.002323      0.009039
    -17.54698      1.51073     20.25051         0.053146     -0.036490     -0.001767
    -14.58059      1.50865     26.34070         0.004311      0.002797      0.013092
    -17.54888      1.51103     24.21649        -0.005050     -0.001589      0.020309
    -14.58086      1.50992     30.50151         0.001483      0.004138     -0.007277
    -17.55044      1.51026     28.45795         0.000228      0.004123     -0.009285
    -14.58156      1.50868     34.62051         0.004607     -0.000169      0.005763
    -17.54896      1.51018     32.57672        -0.003099     -0.001058      0.007989
    -14.57998      1.51152     38.86103        -0.006246     -0.001682     -0.011988
    -17.54876      1.50998     36.73659        -0.005487     -0.001779     -0.007533
    -14.58649      1.50769     42.83014         0.023581      0.024544     -0.135732
    -17.55099      1.50834     40.82444         0.005914      0.002026     -0.015554
    -14.60131      7.45362     22.25911         0.010371      0.008391      0.001931
    -17.55823      7.44151     20.25045         0.074430     -0.132664      0.388614
    -14.59982      7.46524     26.35452         0.000627     -0.001461      0.002321
    -17.57280      7.43331     24.24347        -0.001372      0.005301      0.000838
    -14.60621      7.44538     30.48907         0.008879     -0.000859      0.002372
    -17.56484      7.44252     28.43103        -0.009282      0.007603      0.003485
    -14.59534      7.44401     34.64697        -0.007036      0.006568     -0.002384
    -17.57519      7.44575     32.58897        -0.000286      0.000993     -0.003018
    -14.60504      7.43502     38.83384         0.009641      0.007886     -0.002762
    -17.57036      7.46483     36.72336        -0.007466     -0.005590      0.004445
    -14.58975      7.44054     42.82851         0.184165      0.085722      0.094658
    -17.57161      7.45229     40.81885         0.009003     -0.006773     -0.001772
    -17.52819      4.47489     22.25927        -0.010103     -0.013396      0.002261
    -20.50826      4.48711     20.25066         0.080963      0.114646     -0.047434
    -17.52850      4.46160     26.35629         0.000472      0.001097      0.005512
    -20.49448      4.49039     24.24294        -0.011410     -0.005290      0.005587
    -17.52216      4.47983     30.48830        -0.006873      0.006992      0.006636
    -20.50429      4.48254     28.43223         0.011587      0.000853      0.006783
    -17.53615      4.48343     34.64847         0.003834     -0.002838     -0.003640
    -20.49113      4.47949     32.58910        -0.006245      0.008519     -0.001374
    -17.52592      4.49197     38.83381        -0.007540     -0.008432     -0.001783
    -20.49917      4.46227     36.72171        -0.000139      0.005379      0.001469
    -17.53987      4.48473     42.82745        -0.065743     -0.195806      0.207269
    -20.49721      4.47523     40.81757        -0.002127      0.009566     -0.007465
    -20.53901      7.45108     22.26027        -0.011875      0.005538      0.000266
    -23.49558      7.43962     20.25167        -0.174550     -0.111054      0.177074
    -20.53912      7.46441     26.35467         0.002353     -0.002988      0.001497
    -23.51109      7.43382     24.24386        -0.002124      0.003620      0.002803
    -20.54419      7.44534     30.48996         0.010229      0.000594      0.000332
    -23.50169      7.44427     28.42998        -0.011017      0.007080      0.004200
    -20.53421      7.44430     34.64704        -0.004818      0.005384     -0.002428
    -23.51327      7.44586     32.58914         0.000800      0.001051     -0.003559
    -20.54335      7.43475     38.83409         0.008577      0.008301     -0.001394
    -23.50845      7.46539     36.72336        -0.005875     -0.004896      0.004038
    -20.52934      7.44035     42.82689        -0.113894      0.025861     -0.099768
    -23.50895      7.45185     40.81743        -0.003699     -0.005519     -0.005458
     -4.54155      3.58831      1.54537        -0.099721      0.065175     -0.226701
     -4.54158      3.58807      6.04936         0.002029     -0.000385     -0.028836
     -4.54172      3.58826     10.56504        -0.001246      0.000786      0.003592
     -4.54157      3.58830     15.08023        -0.014006      0.009069     -0.024240
     -8.99522      3.58832      1.54615        -0.025677     -0.104835     -0.090656
     -8.99524      3.58808      6.04994        -0.001615      0.003464     -0.023690
     -8.99522      3.58832     10.56565        -0.003063     -0.002388      0.006729
     -8.99522      3.58831     15.08225        -0.005029     -0.015944      0.009777
    -13.44888      3.58831      1.54537         0.071033     -0.030580     -0.143153
    -13.44889      3.58808      6.04934        -0.002882      0.002005     -0.024763
    -13.44885      3.58830     10.56501        -0.000604     -0.001305      0.005621
    -13.44889      3.58831     15.08022         0.009744     -0.004607     -0.011570
    -17.90255      3.58832      1.54614         0.044642      0.133605     -0.288807
    -17.90256      3.58807      6.04990        -0.003542     -0.003249     -0.032378
    -17.90271      3.58826     10.56562        -0.000225      0.002071      0.001311
    -17.90257      3.58830     15.08227         0.003692      0.016434     -0.024438
     -8.99522      8.04197      1.54537         0.053366     -0.102064     -0.334197
     -8.99524      8.04173      6.04936        -0.002033      0.003893     -0.033074
     -8.99538      8.04192     10.56504         0.000902     -0.001358      0.001264
     -8.99523      8.04196     15.08023         0.006004     -0.011928     -0.036762
    -13.44888      8.04199      1.54615        -0.133048     -0.050528     -0.237587
    -13.44890      8.04174      6.04994         0.001181      0.001715     -0.030491
    -13.44889      8.04198     10.56565        -0.004402     -0.000925      0.002428
    -13.44888      8.04198     15.08225        -0.018299     -0.006406     -0.018269
    -17.90254      8.04197      1.54537        -0.036040      0.073267     -0.058539
    -17.90255      8.04174      6.04934         0.000353     -0.001027     -0.020264
    -17.90251      8.04197     10.56501        -0.002859      0.000956      0.008601
    -17.90255      8.04197     15.08022        -0.007484      0.011774      0.009584
    -22.35621      8.04199      1.54614         0.105114      0.015831     -0.133220
    -22.35622      8.04173      6.04990        -0.005506     -0.000251     -0.025565
    -22.35637      8.04193     10.56562         0.001234      0.000740      0.005234
    -22.35623      8.04196     15.08227         0.014190      0.002236      0.000156
 -----------------------------------------------------------------------------------
    total drift:                                0.024193     -0.176693     -0.103391


--------------------------------------------------------------------------------------------------------



  FREE ENERGIE OF THE ION-ELECTRON SYSTEM (eV)
  ---------------------------------------------------
  free  energy   TOTEN  =      -715.19652558 eV

  energy  without entropy=     -714.88053878  energy(sigma->0) =     -715.03853218
 


--------------------------------------------------------------------------------------------------------


    POTLOK:  cpu time    0.2000: real time    0.2011


--------------------------------------------------------------------------------------------------------


     LOOP+:  cpu time  252.1932: real time  261.2653
    4ORBIT:  cpu time    0.0000: real time    0.0000

 total amount of memory used by VASP MPI-rank0    68589. kBytes
=======================================================================

   base      :      30000. kBytes
   nonlr-proj:      10341. kBytes
   fftplans  :       5301. kBytes
   grid      :       8416. kBytes
   one-center:         52. kBytes
   wavefun   :      14479. kBytes
 
  
  
 General timing and accounting informations for this job:
 ========================================================
  
                  Total CPU time used (sec):      269.116
                            User time (sec):      265.846
                          System time (sec):        3.270
                         Elapsed time (sec):      278.833
  
                   Maximum memory used (kb):      137168.
                   Average memory used (kb):          N/A
  
                          Minor page faults:       145529
                          Major page faults:            0
                 Voluntary context switches:         1000
