 running on  128 total cores
 distrk:  each k-point on  128 cores,    1 groups
 distr:  one band on   16 cores,    8 groups
 vasp.6.2.1 16May21 (build Dec 23 2021 00:35:04) complex                        
  
 POSCAR found type information on POSCAR ClNaO 
 POSCAR found :  3 types and     268 ions
 scaLAPACK will be used
 LDA part: xc-table for Pade appr. of Perdew
 -----------------------------------------------------------------------------
|                                                                             |
|           W    W    AA    RRRRR   N    N  II  N    N   GGGG   !!!           |
|           W    W   A  A   R    R  NN   N  II  NN   N  G    G  !!!           |
|           W    W  A    A  R    R  N N  N  II  N N  N  G       !!!           |
|           W WW W  AAAAAA  RRRRR   N  N N  II  N  N N  G  GGG   !            |
|           WW  WW  A    A  R   R   N   NN  II  N   NN  G    G                |
|           W    W  A    A  R    R  N    N  II  N    N   GGGG   !!!           |
|                                                                             |
|     The requested file  could not be found or opened for reading            |
|     k-point information. Automatic k-point generation is used as a          |
|     fallback, which may lead to unwanted results.                           |
|                                                                             |
 -----------------------------------------------------------------------------

 POSCAR, INCAR and KPOINTS ok, starting setup
 FFT: planning ...
 WAVECAR not read
 entering main loop
       N       E                     dE             d eps       ncg     rms          rms(c)
DAV:   1     0.407049444590E+04    0.40705E+04   -0.16384E+05  1840   0.819E+02
DAV:   2     0.397154161394E+03   -0.36733E+04   -0.34040E+04  2568   0.185E+02
DAV:   3    -0.836650298868E+03   -0.12338E+04   -0.12244E+04  2552   0.105E+02
DAV:   4    -0.882295908721E+03   -0.45646E+02   -0.45400E+02  2128   0.239E+01
DAV:   5    -0.883795264227E+03   -0.14994E+01   -0.14981E+01  2472   0.486E+00    0.637E+01
RMM:   6    -0.719117650471E+03    0.16468E+03   -0.62473E+02  2302   0.212E+01    0.221E+01
RMM:   7    -0.721617856496E+03   -0.25002E+01   -0.12410E+02  2579   0.684E+00    0.186E+01
RMM:   8    -0.717733099324E+03    0.38848E+01   -0.23984E+01  2396   0.456E+00    0.792E+00
RMM:   9    -0.716478221598E+03    0.12549E+01   -0.76523E+00  2372   0.360E+00    0.556E+00
RMM:  10    -0.715933432009E+03    0.54479E+00   -0.12950E+01  2585   0.229E+00    0.539E+00
RMM:  11    -0.715381592384E+03    0.55184E+00   -0.16674E+00  2394   0.120E+00    0.236E+00
RMM:  12    -0.715356522422E+03    0.25070E-01   -0.21359E+00  2492   0.116E+00    0.146E+00
RMM:  13    -0.715313849776E+03    0.42673E-01   -0.67299E-01  2539   0.693E-01    0.967E-01
RMM:  14    -0.715320221796E+03   -0.63720E-02   -0.97553E-02  2828   0.232E-01    0.129E+00
RMM:  15    -0.715301446998E+03    0.18775E-01   -0.70761E-03  2527   0.795E-02    0.119E+00
RMM:  16    -0.715241390769E+03    0.60056E-01   -0.11232E-01  2652   0.240E-01    0.373E-01
RMM:  17    -0.715218785915E+03    0.22605E-01   -0.17475E-02  2446   0.904E-02    0.368E-01
RMM:  18    -0.715200656030E+03    0.18130E-01   -0.36357E-02  2739   0.137E-01    0.167E-01
RMM:  19    -0.715197808411E+03    0.28476E-02   -0.14843E-02  2695   0.878E-02    0.219E-01
RMM:  20    -0.715196924316E+03    0.88410E-03   -0.24871E-03  2704   0.444E-02    0.141E-01
RMM:  21    -0.715196589889E+03    0.33443E-03   -0.13197E-03  2613   0.265E-02    0.723E-02
RMM:  22    -0.715196535888E+03    0.54001E-04   -0.65214E-04  2676   0.166E-02    0.323E-02
RMM:  23    -0.715196526914E+03    0.89738E-05   -0.15949E-04  2778   0.110E-02    0.638E-03
RMM:  24    -0.715196532777E+03   -0.58624E-05   -0.59353E-05  2694   0.603E-03    0.143E-02
RMM:  25    -0.715196528959E+03    0.38182E-05   -0.63971E-06  2481   0.290E-03    0.959E-03
RMM:  26    -0.715196526560E+03    0.23980E-05   -0.75694E-06  2445   0.231E-03    0.385E-03
 num prob RMM:  27    -0.715196525565E+03    0.99552E-06   -0.45696E-06  2600   0.139E-03    0.101E-03
RMM:  28    -0.715196525500E+03    0.64658E-07   -0.27246E-07  2396   0.459E-04    0.784E-04
 num prob WARNING in EDDRMM: call to ZHEGV failed, returncode =   8  4     50
RMM:  29    -0.715196525520E+03   -0.19678E-07   -0.82166E-08  1999   0.237E-04    0.973E-04
 num prob WARNING in EDDRMM: call to ZHEGV failed, returncode =   8  4     49
RMM:  30    -0.715196525488E+03    0.32400E-07   -0.16204E-07  2228   0.300E-04    0.339E-04
 num prob RMM:  31    -0.715196525537E+03   -0.48953E-07   -0.38809E-08  1666   0.187E-04    0.552E-04
 num prob  num prob  num prob RMM:  32    -0.715196525603E+03   -0.66004E-07   -0.23644E-08  1595   0.135E-04    0.607E-04
 num prob WARNING in EDDRMM: call to ZHEGV failed, returncode =   6  3     48
RMM:  33    -0.715196525590E+03    0.12606E-07   -0.86989E-09  1339   0.949E-05    0.432E-04
 num prob RMM:  34    -0.715196525574E+03    0.15596E-07   -0.39650E-08  1567   0.147E-04    0.622E-05
 num prob  num prob RMM:  35    -0.715196525576E+03   -0.16298E-08   -0.30186E-09  1234   0.652E-05
   1 F= -.71519653E+03 E0= -.71503853E+03  d E =-.315987E+00
