<?xml version="1.0" encoding="ISO-8859-1"?>
<modeling>
 <generator>
  <i name="program" type="string">vasp </i>
  <i name="version" type="string">6.2.1  </i>
  <i name="subversion" type="string">16May21 (build Dec 23 2021 00:35:04) complex                          parallel </i>
  <i name="platform" type="string">LinuxIFC </i>
  <i name="date" type="string">2023 03 05 </i>
  <i name="time" type="string">13:29:30 </i>
 </generator>
 <incar>
  <i type="string" name="PREC">Normal</i>
  <i type="string" name="ALGO">Fast</i>
  <i type="int" name="ISPIN">     0</i>
  <i name="AMIN">      0.01000000</i>
  <i type="int" name="NELM">   150</i>
  <i type="int" name="IBRION">    -1</i>
  <i name="EDIFF">      0.00000001</i>
  <i name="EDIFFG">     -0.01000000</i>
  <i type="int" name="NSW">     0</i>
  <i type="int" name="ISIF">     3</i>
  <i type="int" name="ISYM">     0</i>
  <i name="ENCUT">    400.00000000</i>
  <i type="string" name="LREAL">AUTO</i>
  <i type="int" name="ISMEAR">     0</i>
  <i name="SIGMA">      0.10000000</i>
  <i name="KSPACING">      0.50000000</i>
  <i type="logical" name="KGAMMA"> T  </i>
  <i type="int" name="NWRITE">     1</i>
  <i type="int" name="LMAXMIX">     6</i>
  <i type="logical" name="LWAVE"> F  </i>
  <i type="logical" name="LCHARG"> F  </i>
  <i type="logical" name="LASPH"> T  </i>
  <i type="string" name="GGA">PE</i>
 </incar>
 <primitive_cell>
  <structure name="primitive_cell" >
   <crystal>
    <varray name="basis" >
     <v>      -8.90732730       8.90732730       0.00000000 </v>
     <v>     -17.81465460       0.00000000       0.00000000 </v>
     <v>       0.00000000       0.00000000      44.33070903 </v>
    </varray>
    <i name="volume">   7034.43943350 </i>
    <varray name="rec_basis" >
     <v>       0.00000000       0.11226712       0.00000000 </v>
     <v>      -0.05613356      -0.05613356       0.00000000 </v>
     <v>       0.00000000       0.00000000       0.02255773 </v>
    </varray>
   </crystal>
   <varray name="positions" >
    <v>       0.15284772       0.05351036       0.08469459 </v>
    <v>       0.15284652       0.05351208       0.18738864 </v>
    <v>       0.15284543       0.05351245       0.28917208 </v>
    <v>       0.15284798       0.05351047       0.38979769 </v>
    <v>       0.15284775       0.30351072       0.08471822 </v>
    <v>       0.15284747       0.30351212       0.18738088 </v>
    <v>       0.15285008       0.30351096       0.28914073 </v>
    <v>       0.15284815       0.30351038       0.38984689 </v>
    <v>       0.15284786       0.55351012       0.08469460 </v>
    <v>       0.15284974       0.55351108       0.18738805 </v>
    <v>       0.15284940       0.55351193       0.28917263 </v>
    <v>       0.15284788       0.55351070       0.38979778 </v>
    <v>       0.15284781       0.80351055       0.08471817 </v>
    <v>       0.15284474       0.80351248       0.18738015 </v>
    <v>       0.15284693       0.80351188       0.28914133 </v>
    <v>       0.15284763       0.80351103       0.38984690 </v>
    <v>       0.65284772       0.05351036       0.08469459 </v>
    <v>       0.65284652       0.05351208       0.18738865 </v>
    <v>       0.65284543       0.05351245       0.28917209 </v>
    <v>       0.65284798       0.05351047       0.38979769 </v>
    <v>       0.65284775       0.30351072       0.08471822 </v>
    <v>       0.65284746       0.30351212       0.18738088 </v>
    <v>       0.65285007       0.30351095       0.28914074 </v>
    <v>       0.65284813       0.30351038       0.38984688 </v>
    <v>       0.65284786       0.55351012       0.08469460 </v>
    <v>       0.65284974       0.55351108       0.18738805 </v>
    <v>       0.65284939       0.55351194       0.28917264 </v>
    <v>       0.65284788       0.55351070       0.38979776 </v>
    <v>       0.65284781       0.80351055       0.08471817 </v>
    <v>       0.65284474       0.80351248       0.18738014 </v>
    <v>       0.65284693       0.80351188       0.28914133 </v>
    <v>       0.65284765       0.80351103       0.38984689 </v>
    <v>       0.40284855       0.05350907       0.08544990 </v>
    <v>       0.15264987       0.17857688       0.03384518 </v>
    <v>       0.40284808       0.05351090       0.18742341 </v>
    <v>       0.15282029       0.17972408       0.13645686 </v>
    <v>       0.40284852       0.05350926       0.28920990 </v>
    <v>       0.15262545       0.17837590       0.23835750 </v>
    <v>       0.40285012       0.05350844       0.39016408 </v>
    <v>       0.15277608       0.17777044       0.34026703 </v>
    <v>       0.40304201       0.17837869       0.03383663 </v>
    <v>       0.40284974       0.30350828       0.08549788 </v>
    <v>       0.15305427       0.42843836       0.03384517 </v>
    <v>       0.40540709       0.17718773       0.13631647 </v>
    <v>       0.40284583       0.30351908       0.18739780 </v>
    <v>       0.15284054       0.42732292       0.13645684 </v>
    <v>       0.40249730       0.17860026       0.23834786 </v>
    <v>       0.40284831       0.30350903       0.28926139 </v>
    <v>       0.15306863       0.42865520       0.23835741 </v>
    <v>       0.40116663       0.17935247       0.34022735 </v>
    <v>       0.40284951       0.30350894       0.39032152 </v>
    <v>       0.15292232       0.42924975       0.34026685 </v>
    <v>       0.40264864       0.42866250       0.03384190 </v>
    <v>       0.40284882       0.55350865       0.08545021 </v>
    <v>       0.15264994       0.67857687       0.03384520 </v>
    <v>       0.40027996       0.42983885       0.13631565 </v>
    <v>       0.40284669       0.55350971       0.18742385 </v>
    <v>       0.15282125       0.67972379       0.13645700 </v>
    <v>       0.40320817       0.42842527       0.23834888 </v>
    <v>       0.40283558       0.55351239       0.28920780 </v>
    <v>       0.15262453       0.67837658       0.23835723 </v>
    <v>       0.40453116       0.42766586       0.34022659 </v>
    <v>       0.40284982       0.55350885       0.39016445 </v>
    <v>       0.15277568       0.67777060       0.34026686 </v>
    <v>       0.40304198       0.67837865       0.03383664 </v>
    <v>       0.40284996       0.80350794       0.08549755 </v>
    <v>       0.15305437       0.92843829       0.03384514 </v>
    <v>       0.40540802       0.67718543       0.13631647 </v>
    <v>       0.40284568       0.80351057       0.18739722 </v>
    <v>       0.15283943       0.92732325       0.13645633 </v>
    <v>       0.40249729       0.67860044       0.23834788 </v>
    <v>       0.40284962       0.80351021       0.28926072 </v>
    <v>       0.15306969       0.92865292       0.23835772 </v>
    <v>       0.40116578       0.67935390       0.34022700 </v>
    <v>       0.40284928       0.80350929       0.39032106 </v>
    <v>       0.15292270       0.92924917       0.34026653 </v>
    <v>       0.40264872       0.92866241       0.03384188 </v>
    <v>       0.40028078       0.92983869       0.13631573 </v>
    <v>       0.40320681       0.92841588       0.23834502 </v>
    <v>       0.40453201       0.92766548       0.34022657 </v>
    <v>       0.90284852       0.05350908       0.08544989 </v>
    <v>       0.65264985       0.17857689       0.03384518 </v>
    <v>       0.90284806       0.05351091       0.18742341 </v>
    <v>       0.65282029       0.17972410       0.13645686 </v>
    <v>       0.90284841       0.05350928       0.28920990 </v>
    <v>       0.65262544       0.17837590       0.23835749 </v>
    <v>       0.90285028       0.05350834       0.39016407 </v>
    <v>       0.65277608       0.17777044       0.34026705 </v>
    <v>       0.90304201       0.17837868       0.03383659 </v>
    <v>       0.90284973       0.30350827       0.08549786 </v>
    <v>       0.65305424       0.42843837       0.03384514 </v>
    <v>       0.90540711       0.17718771       0.13631646 </v>
    <v>       0.90284585       0.30351906       0.18739779 </v>
    <v>       0.65284056       0.42732290       0.13645682 </v>
    <v>       0.90249732       0.17860024       0.23834787 </v>
    <v>       0.90284825       0.30350906       0.28926140 </v>
    <v>       0.65306865       0.42865519       0.23835741 </v>
    <v>       0.90116649       0.17935253       0.34022734 </v>
    <v>       0.90284965       0.30350883       0.39032153 </v>
    <v>       0.65292231       0.42924977       0.34026690 </v>
    <v>       0.90264867       0.42866248       0.03384186 </v>
    <v>       0.90284880       0.55350865       0.08545020 </v>
    <v>       0.65264995       0.67857687       0.03384519 </v>
    <v>       0.90027996       0.42983884       0.13631562 </v>
    <v>       0.90284663       0.55350972       0.18742385 </v>
    <v>       0.65282125       0.67972381       0.13645699 </v>
    <v>       0.90320819       0.42842526       0.23834888 </v>
    <v>       0.90283557       0.55351241       0.28920780 </v>
    <v>       0.65262453       0.67837657       0.23835723 </v>
    <v>       0.90453103       0.42766593       0.34022661 </v>
    <v>       0.90285004       0.55350876       0.39016445 </v>
    <v>       0.65277568       0.67777056       0.34026687 </v>
    <v>       0.90304202       0.67837863       0.03383661 </v>
    <v>       0.90284993       0.80350794       0.08549754 </v>
    <v>       0.65305435       0.92843830       0.03384513 </v>
    <v>       0.90540798       0.67718544       0.13631647 </v>
    <v>       0.90284568       0.80351056       0.18739723 </v>
    <v>       0.65283944       0.92732322       0.13645633 </v>
    <v>       0.90249730       0.67860043       0.23834789 </v>
    <v>       0.90284958       0.80351022       0.28926074 </v>
    <v>       0.65306970       0.92865292       0.23835773 </v>
    <v>       0.90116562       0.67935398       0.34022702 </v>
    <v>       0.90284949       0.80350918       0.39032108 </v>
    <v>       0.65292271       0.92924917       0.34026659 </v>
    <v>       0.90264872       0.92866241       0.03384186 </v>
    <v>       0.90028077       0.92983870       0.13631572 </v>
    <v>       0.90320683       0.92841587       0.23834501 </v>
    <v>       0.90453189       0.92766554       0.34022658 </v>
    <v>       0.16946254       0.06701966       0.50199610 </v>
    <v>       0.16986781       0.23320294       0.45674011 </v>
    <v>       0.16943331       0.06710608       0.59419062 </v>
    <v>       0.16958320       0.23360491       0.54629070 </v>
    <v>       0.16945235       0.06706374       0.68804972 </v>
    <v>       0.16941144       0.23378763       0.64196413 </v>
    <v>       0.16941167       0.06699651       0.78093054 </v>
    <v>       0.16951626       0.23368146       0.73485510 </v>
    <v>       0.16960188       0.06693346       0.87662644 </v>
    <v>       0.16945761       0.23363852       0.82872385 </v>
    <v>       0.16924332       0.06752149       0.96614694 </v>
    <v>       0.16946712       0.23374939       0.92094259 </v>
    <v>       0.50238900       0.06606728       0.50213790 </v>
    <v>       0.50344374       0.23288222       0.45682916 </v>
    <v>       0.50087630       0.06686609       0.59452750 </v>
    <v>       0.50433857       0.23160937       0.54687660 </v>
    <v>       0.50301808       0.06542182       0.68772244 </v>
    <v>       0.50327308       0.23266313       0.64134737 </v>
    <v>       0.50334352       0.06599824       0.78156537 </v>
    <v>       0.50292150       0.23211641       0.73513621 </v>
    <v>       0.50428044       0.06500453       0.87601682 </v>
    <v>       0.50079073       0.23366168       0.82838474 </v>
    <v>       0.50379592       0.06596105       0.96608045 </v>
    <v>       0.50233400       0.23270471       0.92077831 </v>
    <v>       0.16945483       0.40028243       0.50192227 </v>
    <v>       0.16953540       0.56682366       0.45681756 </v>
    <v>       0.16948080       0.40035394       0.59417929 </v>
    <v>       0.16939625       0.56708928       0.54625969 </v>
    <v>       0.16954329       0.40033554       0.68803849 </v>
    <v>       0.16935699       0.56718096       0.64193211 </v>
    <v>       0.16937596       0.40040268       0.78097716 </v>
    <v>       0.16956786       0.56703498       0.73484279 </v>
    <v>       0.16944697       0.40039147       0.87662877 </v>
    <v>       0.16958999       0.56697386       0.82870155 </v>
    <v>       0.16945256       0.40049042       0.96616341 </v>
    <v>       0.16942715       0.56711173       0.92092624 </v>
    <v>       0.83653842       0.06802276       0.50216078 </v>
    <v>       0.83523760       0.23465328       0.45681935 </v>
    <v>       0.83821068       0.06710477       0.59452572 </v>
    <v>       0.83446696       0.23584530       0.54688467 </v>
    <v>       0.83584490       0.06860011       0.68777697 </v>
    <v>       0.83567434       0.23474065       0.64135432 </v>
    <v>       0.83570210       0.06803104       0.78153828 </v>
    <v>       0.83588685       0.23527095       0.73513702 </v>
    <v>       0.83464598       0.06921303       0.87603071 </v>
    <v>       0.83804448       0.23384905       0.82838270 </v>
    <v>       0.83526411       0.06806014       0.96604834 </v>
    <v>       0.83647745       0.23483561       0.92075823 </v>
    <v>       0.50232126       0.39942887       0.50212815 </v>
    <v>       0.50370696       0.56601680       0.45682548 </v>
    <v>       0.50085714       0.40019247       0.59451688 </v>
    <v>       0.50414486       0.56504001       0.54684210 </v>
    <v>       0.50293401       0.39879350       0.68772709 </v>
    <v>       0.50324739       0.56599330       0.64135170 </v>
    <v>       0.50317297       0.39936174       0.78155928 </v>
    <v>       0.50291051       0.56544977       0.73514346 </v>
    <v>       0.50436495       0.39831002       0.87601624 </v>
    <v>       0.50081701       0.56693472       0.82836534 </v>
    <v>       0.50346349       0.39950946       0.96608510 </v>
    <v>       0.50230414       0.56618648       0.92077846 </v>
    <v>       0.16932891       0.73384562       0.50198376 </v>
    <v>       0.16960487       0.90017202       0.45680547 </v>
    <v>       0.16937182       0.73377473       0.59418635 </v>
    <v>       0.16963920       0.90026173       0.54626888 </v>
    <v>       0.16951408       0.73371829       0.68804462 </v>
    <v>       0.16955288       0.90039235       0.64194666 </v>
    <v>       0.16937472       0.73382745       0.78096004 </v>
    <v>       0.16954394       0.90031390       0.73485674 </v>
    <v>       0.16969422       0.73357909       0.87661656 </v>
    <v>       0.16952106       0.90031367       0.82869405 </v>
    <v>       0.16926373       0.73415978       0.96615047 </v>
    <v>       0.16933663       0.90053112       0.92090651 </v>
    <v>       0.83679679       0.40122518       0.50211486 </v>
    <v>       0.83543733       0.56788755       0.45680411 </v>
    <v>       0.83810157       0.40048914       0.59449804 </v>
    <v>       0.83451671       0.56916561       0.54687764 </v>
    <v>       0.83587174       0.40196280       0.68776409 </v>
    <v>       0.83555053       0.56820165       0.64133938 </v>
    <v>       0.83571746       0.40142956       0.78155683 </v>
    <v>       0.83591318       0.56860118       0.73513310 </v>
    <v>       0.83470817       0.40247874       0.87600323 </v>
    <v>       0.83805456       0.56725971       0.82839560 </v>
    <v>       0.83532786       0.40131096       0.96611389 </v>
    <v>       0.83664669       0.56803357       0.92078036 </v>
    <v>       0.50238259       0.73272866       0.50211855 </v>
    <v>       0.50375490       0.89932406       0.45680890 </v>
    <v>       0.50089091       0.73349146       0.59453796 </v>
    <v>       0.50412294       0.89836693       0.54686559 </v>
    <v>       0.50293761       0.73211228       0.68774677 </v>
    <v>       0.50324223       0.89935770       0.64136649 </v>
    <v>       0.50334208       0.73269569       0.78159077 </v>
    <v>       0.50289894       0.89879061       0.73513609 </v>
    <v>       0.50430030       0.73164221       0.87600244 </v>
    <v>       0.50096586       0.90020825       0.82835819 </v>
    <v>       0.50348825       0.73283107       0.96608999 </v>
    <v>       0.50242147       0.89937058       0.92075160 </v>
    <v>       0.83651098       0.73467253       0.50214102 </v>
    <v>       0.83522434       0.90127822       0.45683152 </v>
    <v>       0.83800774       0.73393016       0.59450137 </v>
    <v>       0.83457333       0.90247481       0.54688647 </v>
    <v>       0.83586650       0.73528520       0.68778418 </v>
    <v>       0.83574657       0.90136037       0.64131563 </v>
    <v>       0.83575026       0.73478302       0.78155839 </v>
    <v>       0.83592494       0.90192115       0.73513690 </v>
    <v>       0.83467779       0.73583225       0.87600866 </v>
    <v>       0.83811792       0.90055388       0.82839546 </v>
    <v>       0.83530692       0.73473161       0.96607735 </v>
    <v>       0.83659724       0.90134250       0.92074851 </v>
    <v>       0.40284868       0.05350927       0.03486004 </v>
    <v>       0.40282178       0.05352422       0.13645976 </v>
    <v>       0.40284348       0.05352092       0.23832320 </v>
    <v>       0.40284785       0.05351046       0.34017563 </v>
    <v>       0.40285067       0.30350838       0.03487753 </v>
    <v>       0.40282292       0.30352333       0.13647287 </v>
    <v>       0.40284986       0.30350902       0.23833708 </v>
    <v>       0.40284949       0.30350888       0.34022136 </v>
    <v>       0.40284876       0.55350918       0.03486014 </v>
    <v>       0.40282319       0.55352254       0.13645946 </v>
    <v>       0.40284827       0.55350774       0.23832255 </v>
    <v>       0.40284874       0.55350975       0.34017543 </v>
    <v>       0.40285054       0.80350850       0.03487742 </v>
    <v>       0.40282180       0.80352351       0.13647188 </v>
    <v>       0.40284386       0.80352071       0.23833646 </v>
    <v>       0.40284767       0.80351107       0.34022164 </v>
    <v>       0.90284869       0.05350927       0.03486003 </v>
    <v>       0.90282177       0.05352422       0.13645976 </v>
    <v>       0.90284347       0.05352092       0.23832319 </v>
    <v>       0.90284784       0.05351046       0.34017562 </v>
    <v>       0.90285067       0.30350838       0.03487752 </v>
    <v>       0.90282292       0.30352332       0.13647285 </v>
    <v>       0.90284986       0.30350902       0.23833708 </v>
    <v>       0.90284948       0.30350888       0.34022137 </v>
    <v>       0.90284877       0.55350917       0.03486013 </v>
    <v>       0.90282318       0.55352254       0.13645945 </v>
    <v>       0.90284827       0.55350774       0.23832255 </v>
    <v>       0.90284875       0.55350974       0.34017544 </v>
    <v>       0.90285053       0.80350850       0.03487742 </v>
    <v>       0.90282180       0.80352350       0.13647188 </v>
    <v>       0.90284386       0.80352071       0.23833646 </v>
    <v>       0.90284767       0.80351107       0.34022165 </v>
   </varray>
  </structure>
  <varray name="primitive_index" >
   <v type="int" >        1 </v>
   <v type="int" >        2 </v>
   <v type="int" >        3 </v>
   <v type="int" >        4 </v>
   <v type="int" >        5 </v>
   <v type="int" >        6 </v>
   <v type="int" >        7 </v>
   <v type="int" >        8 </v>
   <v type="int" >        9 </v>
   <v type="int" >       10 </v>
   <v type="int" >       11 </v>
   <v type="int" >       12 </v>
   <v type="int" >       13 </v>
   <v type="int" >       14 </v>
   <v type="int" >       15 </v>
   <v type="int" >       16 </v>
   <v type="int" >       17 </v>
   <v type="int" >       18 </v>
   <v type="int" >       19 </v>
   <v type="int" >       20 </v>
   <v type="int" >       21 </v>
   <v type="int" >       22 </v>
   <v type="int" >       23 </v>
   <v type="int" >       24 </v>
   <v type="int" >       25 </v>
   <v type="int" >       26 </v>
   <v type="int" >       27 </v>
   <v type="int" >       28 </v>
   <v type="int" >       29 </v>
   <v type="int" >       30 </v>
   <v type="int" >       31 </v>
   <v type="int" >       32 </v>
   <v type="int" >       33 </v>
   <v type="int" >       34 </v>
   <v type="int" >       35 </v>
   <v type="int" >       36 </v>
   <v type="int" >       37 </v>
   <v type="int" >       38 </v>
   <v type="int" >       39 </v>
   <v type="int" >       40 </v>
   <v type="int" >       41 </v>
   <v type="int" >       42 </v>
   <v type="int" >       43 </v>
   <v type="int" >       44 </v>
   <v type="int" >       45 </v>
   <v type="int" >       46 </v>
   <v type="int" >       47 </v>
   <v type="int" >       48 </v>
   <v type="int" >       49 </v>
   <v type="int" >       50 </v>
   <v type="int" >       51 </v>
   <v type="int" >       52 </v>
   <v type="int" >       53 </v>
   <v type="int" >       54 </v>
   <v type="int" >       55 </v>
   <v type="int" >       56 </v>
   <v type="int" >       57 </v>
   <v type="int" >       58 </v>
   <v type="int" >       59 </v>
   <v type="int" >       60 </v>
   <v type="int" >       61 </v>
   <v type="int" >       62 </v>
   <v type="int" >       63 </v>
   <v type="int" >       64 </v>
   <v type="int" >       65 </v>
   <v type="int" >       66 </v>
   <v type="int" >       67 </v>
   <v type="int" >       68 </v>
   <v type="int" >       69 </v>
   <v type="int" >       70 </v>
   <v type="int" >       71 </v>
   <v type="int" >       72 </v>
   <v type="int" >       73 </v>
   <v type="int" >       74 </v>
   <v type="int" >       75 </v>
   <v type="int" >       76 </v>
   <v type="int" >       77 </v>
   <v type="int" >       78 </v>
   <v type="int" >       79 </v>
   <v type="int" >       80 </v>
   <v type="int" >       81 </v>
   <v type="int" >       82 </v>
   <v type="int" >       83 </v>
   <v type="int" >       84 </v>
   <v type="int" >       85 </v>
   <v type="int" >       86 </v>
   <v type="int" >       87 </v>
   <v type="int" >       88 </v>
   <v type="int" >       89 </v>
   <v type="int" >       90 </v>
   <v type="int" >       91 </v>
   <v type="int" >       92 </v>
   <v type="int" >       93 </v>
   <v type="int" >       94 </v>
   <v type="int" >       95 </v>
   <v type="int" >       96 </v>
   <v type="int" >       97 </v>
   <v type="int" >       98 </v>
   <v type="int" >       99 </v>
   <v type="int" >      100 </v>
   <v type="int" >      101 </v>
   <v type="int" >      102 </v>
   <v type="int" >      103 </v>
   <v type="int" >      104 </v>
   <v type="int" >      105 </v>
   <v type="int" >      106 </v>
   <v type="int" >      107 </v>
   <v type="int" >      108 </v>
   <v type="int" >      109 </v>
   <v type="int" >      110 </v>
   <v type="int" >      111 </v>
   <v type="int" >      112 </v>
   <v type="int" >      113 </v>
   <v type="int" >      114 </v>
   <v type="int" >      115 </v>
   <v type="int" >      116 </v>
   <v type="int" >      117 </v>
   <v type="int" >      118 </v>
   <v type="int" >      119 </v>
   <v type="int" >      120 </v>
   <v type="int" >      121 </v>
   <v type="int" >      122 </v>
   <v type="int" >      123 </v>
   <v type="int" >      124 </v>
   <v type="int" >      125 </v>
   <v type="int" >      126 </v>
   <v type="int" >      127 </v>
   <v type="int" >      128 </v>
   <v type="int" >      129 </v>
   <v type="int" >      130 </v>
   <v type="int" >      131 </v>
   <v type="int" >      132 </v>
   <v type="int" >      133 </v>
   <v type="int" >      134 </v>
   <v type="int" >      135 </v>
   <v type="int" >      136 </v>
   <v type="int" >      137 </v>
   <v type="int" >      138 </v>
   <v type="int" >      139 </v>
   <v type="int" >      140 </v>
   <v type="int" >      141 </v>
   <v type="int" >      142 </v>
   <v type="int" >      143 </v>
   <v type="int" >      144 </v>
   <v type="int" >      145 </v>
   <v type="int" >      146 </v>
   <v type="int" >      147 </v>
   <v type="int" >      148 </v>
   <v type="int" >      149 </v>
   <v type="int" >      150 </v>
   <v type="int" >      151 </v>
   <v type="int" >      152 </v>
   <v type="int" >      153 </v>
   <v type="int" >      154 </v>
   <v type="int" >      155 </v>
   <v type="int" >      156 </v>
   <v type="int" >      157 </v>
   <v type="int" >      158 </v>
   <v type="int" >      159 </v>
   <v type="int" >      160 </v>
   <v type="int" >      161 </v>
   <v type="int" >      162 </v>
   <v type="int" >      163 </v>
   <v type="int" >      164 </v>
   <v type="int" >      165 </v>
   <v type="int" >      166 </v>
   <v type="int" >      167 </v>
   <v type="int" >      168 </v>
   <v type="int" >      169 </v>
   <v type="int" >      170 </v>
   <v type="int" >      171 </v>
   <v type="int" >      172 </v>
   <v type="int" >      173 </v>
   <v type="int" >      174 </v>
   <v type="int" >      175 </v>
   <v type="int" >      176 </v>
   <v type="int" >      177 </v>
   <v type="int" >      178 </v>
   <v type="int" >      179 </v>
   <v type="int" >      180 </v>
   <v type="int" >      181 </v>
   <v type="int" >      182 </v>
   <v type="int" >      183 </v>
   <v type="int" >      184 </v>
   <v type="int" >      185 </v>
   <v type="int" >      186 </v>
   <v type="int" >      187 </v>
   <v type="int" >      188 </v>
   <v type="int" >      189 </v>
   <v type="int" >      190 </v>
   <v type="int" >      191 </v>
   <v type="int" >      192 </v>
   <v type="int" >      193 </v>
   <v type="int" >      194 </v>
   <v type="int" >      195 </v>
   <v type="int" >      196 </v>
   <v type="int" >      197 </v>
   <v type="int" >      198 </v>
   <v type="int" >      199 </v>
   <v type="int" >      200 </v>
   <v type="int" >      201 </v>
   <v type="int" >      202 </v>
   <v type="int" >      203 </v>
   <v type="int" >      204 </v>
   <v type="int" >      205 </v>
   <v type="int" >      206 </v>
   <v type="int" >      207 </v>
   <v type="int" >      208 </v>
   <v type="int" >      209 </v>
   <v type="int" >      210 </v>
   <v type="int" >      211 </v>
   <v type="int" >      212 </v>
   <v type="int" >      213 </v>
   <v type="int" >      214 </v>
   <v type="int" >      215 </v>
   <v type="int" >      216 </v>
   <v type="int" >      217 </v>
   <v type="int" >      218 </v>
   <v type="int" >      219 </v>
   <v type="int" >      220 </v>
   <v type="int" >      221 </v>
   <v type="int" >      222 </v>
   <v type="int" >      223 </v>
   <v type="int" >      224 </v>
   <v type="int" >      225 </v>
   <v type="int" >      226 </v>
   <v type="int" >      227 </v>
   <v type="int" >      228 </v>
   <v type="int" >      229 </v>
   <v type="int" >      230 </v>
   <v type="int" >      231 </v>
   <v type="int" >      232 </v>
   <v type="int" >      233 </v>
   <v type="int" >      234 </v>
   <v type="int" >      235 </v>
   <v type="int" >      236 </v>
   <v type="int" >      237 </v>
   <v type="int" >      238 </v>
   <v type="int" >      239 </v>
   <v type="int" >      240 </v>
   <v type="int" >      241 </v>
   <v type="int" >      242 </v>
   <v type="int" >      243 </v>
   <v type="int" >      244 </v>
   <v type="int" >      245 </v>
   <v type="int" >      246 </v>
   <v type="int" >      247 </v>
   <v type="int" >      248 </v>
   <v type="int" >      249 </v>
   <v type="int" >      250 </v>
   <v type="int" >      251 </v>
   <v type="int" >      252 </v>
   <v type="int" >      253 </v>
   <v type="int" >      254 </v>
   <v type="int" >      255 </v>
   <v type="int" >      256 </v>
   <v type="int" >      257 </v>
   <v type="int" >      258 </v>
   <v type="int" >      259 </v>
   <v type="int" >      260 </v>
   <v type="int" >      261 </v>
   <v type="int" >      262 </v>
   <v type="int" >      263 </v>
   <v type="int" >      264 </v>
   <v type="int" >      265 </v>
   <v type="int" >      266 </v>
   <v type="int" >      267 </v>
   <v type="int" >      268 </v>
  </varray>
 </primitive_cell>
 <kpoints>
  <generation param="Gamma">
   <v type="int" name="divisions">       2        1        1 </v>
   <v name="usershift">      0.00000000       0.00000000       0.00000000 </v>
   <v name="genvec1">      0.50000000       0.00000000       0.00000000 </v>
   <v name="genvec2">      0.00000000       1.00000000       0.00000000 </v>
   <v name="genvec3">      0.00000000       0.00000000       1.00000000 </v>
   <v name="shift">      0.00000000       0.00000000       0.00000000 </v>
  </generation>
  <varray name="kpointlist" >
   <v>       0.00000000       0.00000000       0.00000000 </v>
   <v>       0.50000000       0.00000000       0.00000000 </v>
  </varray>
  <varray name="weights" >
   <v>       0.50000000 </v>
   <v>       0.50000000 </v>
  </varray>
 </kpoints>
 <parameters>
  <separator name="general" >
   <i type="string" name="SYSTEM">unknown system</i>
   <i type="logical" name="LCOMPAT"> F  </i>
  </separator>
  <separator name="electronic" >
   <i type="string" name="PREC">normal</i>
   <i name="ENMAX">    400.00000000</i>
   <i name="ENAUG">    605.39200000</i>
   <i name="EDIFF">      0.00000001</i>
   <i type="int" name="IALGO">    68</i>
   <i type="int" name="IWAVPR">    10</i>
   <i type="int" name="NBANDS">   448</i>
   <i type="int" name="NBANDSLOW">    -1</i>
   <i type="int" name="NBANDSHIGH">    -1</i>
   <i name="NELECT">    620.00000000</i>
   <i type="int" name="TURBO">     0</i>
   <i type="int" name="IRESTART">     0</i>
   <i type="int" name="NREBOOT">     0</i>
   <i type="int" name="NMIN">     0</i>
   <i name="EREF">      0.00000000</i>
   <separator name="electronic smearing" >
    <i type="int" name="ISMEAR">     0</i>
    <i name="SIGMA">      0.10000000</i>
    <i name="KSPACING">      0.50000000</i>
    <i type="logical" name="KGAMMA"> T  </i>
    <i type="logical" name="KBLOWUP"> T  </i>
   </separator>
   <separator name="electronic projectors" >
    <i type="logical" name="LREAL"> T  </i>
    <v name="ROPT">     -0.00050000     -0.00050000     -0.00050000</v>
    <i type="int" name="LMAXPAW">  -100</i>
    <i type="int" name="LMAXMIX">     6</i>
    <i type="logical" name="NLSPLINE"> F  </i>
   </separator>
   <separator name="electronic startup" >
    <i type="int" name="ISTART">     0</i>
    <i type="int" name="ICHARG">     2</i>
    <i type="int" name="INIWAV">     1</i>
   </separator>
   <separator name="electronic spin" >
    <i type="int" name="ISPIN">     1</i>
    <i type="logical" name="LNONCOLLINEAR"> F  </i>
    <v name="MAGMOM">      1.00000000      1.00000000      1.00000000      1.00000000      1.00000000      1.00000000      1.00000000      1.00000000      1.00000000      1.00000000      1.00000000      1.00000000      1.00000000      1.00000000      1.00000000      1.00000000      1.00000000      1.00000000      1.00000000      1.00000000
      1.00000000      1.00000000      1.00000000      1.00000000      1.00000000      1.00000000      1.00000000      1.00000000      1.00000000      1.00000000      1.00000000      1.00000000      1.00000000      1.00000000      1.00000000      1.00000000      1.00000000      1.00000000      1.00000000      1.00000000
      1.00000000      1.00000000      1.00000000      1.00000000      1.00000000      1.00000000      1.00000000      1.00000000      1.00000000      1.00000000      1.00000000      1.00000000      1.00000000      1.00000000      1.00000000      1.00000000      1.00000000      1.00000000      1.00000000      1.00000000
      1.00000000      1.00000000      1.00000000      1.00000000      1.00000000      1.00000000      1.00000000      1.00000000      1.00000000      1.00000000      1.00000000      1.00000000      1.00000000      1.00000000      1.00000000      1.00000000      1.00000000      1.00000000      1.00000000      1.00000000
      1.00000000      1.00000000      1.00000000      1.00000000      1.00000000      1.00000000      1.00000000      1.00000000      1.00000000      1.00000000      1.00000000      1.00000000      1.00000000      1.00000000      1.00000000      1.00000000      1.00000000      1.00000000      1.00000000      1.00000000
      1.00000000      1.00000000      1.00000000      1.00000000      1.00000000      1.00000000      1.00000000      1.00000000      1.00000000      1.00000000      1.00000000      1.00000000      1.00000000      1.00000000      1.00000000      1.00000000      1.00000000      1.00000000      1.00000000      1.00000000
      1.00000000      1.00000000      1.00000000      1.00000000      1.00000000      1.00000000      1.00000000      1.00000000      1.00000000      1.00000000      1.00000000      1.00000000      1.00000000      1.00000000      1.00000000      1.00000000      1.00000000      1.00000000      1.00000000      1.00000000
      1.00000000      1.00000000      1.00000000      1.00000000      1.00000000      1.00000000      1.00000000      1.00000000      1.00000000      1.00000000      1.00000000      1.00000000      1.00000000      1.00000000      1.00000000      1.00000000      1.00000000      1.00000000      1.00000000      1.00000000
      1.00000000      1.00000000      1.00000000      1.00000000      1.00000000      1.00000000      1.00000000      1.00000000      1.00000000      1.00000000      1.00000000      1.00000000      1.00000000      1.00000000      1.00000000      1.00000000      1.00000000      1.00000000      1.00000000      1.00000000
      1.00000000      1.00000000      1.00000000      1.00000000      1.00000000      1.00000000      1.00000000      1.00000000      1.00000000      1.00000000      1.00000000      1.00000000      1.00000000      1.00000000      1.00000000      1.00000000      1.00000000      1.00000000      1.00000000      1.00000000
      1.00000000      1.00000000      1.00000000      1.00000000      1.00000000      1.00000000      1.00000000      1.00000000      1.00000000      1.00000000      1.00000000      1.00000000      1.00000000      1.00000000      1.00000000      1.00000000      1.00000000      1.00000000      1.00000000      1.00000000
      1.00000000      1.00000000      1.00000000      1.00000000      1.00000000      1.00000000      1.00000000      1.00000000      1.00000000      1.00000000      1.00000000      1.00000000      1.00000000      1.00000000      1.00000000      1.00000000      1.00000000      1.00000000      1.00000000      1.00000000
      1.00000000      1.00000000      1.00000000      1.00000000      1.00000000      1.00000000      1.00000000      1.00000000      1.00000000      1.00000000      1.00000000      1.00000000      1.00000000      1.00000000      1.00000000      1.00000000      1.00000000      1.00000000      1.00000000      1.00000000
      1.00000000      1.00000000      1.00000000      1.00000000      1.00000000      1.00000000      1.00000000      1.00000000</v>
    <i name="NUPDOWN">     -1.00000000</i>
    <i type="logical" name="LSORBIT"> F  </i>
    <v name="SAXIS">      0.00000000      0.00000000      1.00000000</v>
    <i type="logical" name="LSPIRAL"> F  </i>
    <v name="QSPIRAL">      0.00000000      0.00000000      0.00000000</v>
    <i type="logical" name="LZEROZ"> F  </i>
   </separator>
   <separator name="electronic exchange-correlation" >
    <i type="logical" name="LASPH"> T  </i>
    <i type="logical" name="LMETAGGA"> F  </i>
   </separator>
   <separator name="electronic convergence" >
    <i type="int" name="NELM">   150</i>
    <i type="int" name="NELMDL">    -5</i>
    <i type="int" name="NELMIN">     2</i>
    <i name="ENINI">    400.00000000</i>
    <separator name="electronic convergence detail" >
     <i type="logical" name="LDIAG"> T  </i>
     <i type="logical" name="LSUBROT"> F  </i>
     <i name="WEIMIN">      0.00000000</i>
     <i name="EBREAK">      0.00000000</i>
     <i name="DEPER">      0.30000000</i>
     <i type="int" name="NRMM">     4</i>
     <i name="TIME">      0.40000000</i>
    </separator>
   </separator>
   <separator name="electronic mixer" >
    <i name="AMIX">      0.40000000</i>
    <i name="BMIX">      1.00000000</i>
    <i name="AMIN">      0.01000000</i>
    <i name="AMIX_MAG">      1.60000000</i>
    <i name="BMIX_MAG">      1.00000000</i>
    <separator name="electronic mixer details" >
     <i type="int" name="IMIX">     4</i>
     <i type="logical" name="MIXFIRST"> F  </i>
     <i type="int" name="MAXMIX">   -45</i>
     <i name="WC">    100.00000000</i>
     <i type="int" name="INIMIX">     1</i>
     <i type="int" name="MIXPRE">     1</i>
     <i type="int" name="MREMOVE">     5</i>
    </separator>
   </separator>
   <separator name="electronic dipolcorrection" >
    <i type="logical" name="LDIPOL"> F  </i>
    <i type="logical" name="LMONO"> F  </i>
    <i type="int" name="IDIPOL">     0</i>
    <i name="EPSILON">      1.00000000</i>
    <v name="DIPOL">   -100.00000000   -100.00000000   -100.00000000</v>
    <i name="EFIELD">      0.00000000</i>
   </separator>
  </separator>
  <separator name="grids" >
   <i type="int" name="NGX">    64</i>
   <i type="int" name="NGY">    90</i>
   <i type="int" name="NGZ">   224</i>
   <i type="int" name="NGXF">   128</i>
   <i type="int" name="NGYF">   180</i>
   <i type="int" name="NGZF">   448</i>
   <i type="logical" name="ADDGRID"> F  </i>
  </separator>
  <separator name="ionic" >
   <i type="int" name="NSW">     0</i>
   <i type="int" name="IBRION">    -1</i>
   <i type="int" name="MDALGO">     0</i>
   <i type="int" name="ISIF">     3</i>
   <i name="PSTRESS">      0.00000000</i>
   <i name="EDIFFG">     -0.01000000</i>
   <i type="int" name="NFREE">     0</i>
   <i name="POTIM">      0.50000000</i>
   <i name="SMASS">     -3.00000000</i>
   <i name="SCALEE">      1.00000000</i>
  </separator>
  <separator name="ionic md" >
   <i name="TEBEG">      0.00010000</i>
   <i name="TEEND">      0.00010000</i>
   <i type="int" name="NBLOCK">     1</i>
   <i type="int" name="KBLOCK">     1</i>
   <i type="int" name="NPACO">   256</i>
   <i name="APACO">     16.00000000</i>
  </separator>
  <separator name="symmetry" >
   <i type="int" name="ISYM">     0</i>
   <i name="SYMPREC">      0.00001000</i>
  </separator>
  <separator name="dos" >
   <i type="int" name="LORBIT">     0</i>
   <v name="RWIGS">     -1.00000000     -1.00000000     -1.00000000</v>
   <i type="int" name="NEDOS">   301</i>
   <i name="EMIN">     10.00000000</i>
   <i name="EMAX">    -10.00000000</i>
   <i name="EFERMI">      0.00000000</i>
  </separator>
  <separator name="writing" >
   <i type="int" name="NWRITE">     1</i>
   <i type="logical" name="LWAVE"> F  </i>
   <i type="logical" name="LDOWNSAMPLE"> F  </i>
   <i type="logical" name="LCHARG"> F  </i>
   <i type="logical" name="LPARD"> F  </i>
   <i type="logical" name="LVTOT"> F  </i>
   <i type="logical" name="LVHAR"> F  </i>
   <i type="logical" name="LELF"> F  </i>
   <i type="logical" name="LOPTICS"> F  </i>
   <v name="STM">      0.00000000      0.00000000      0.00000000      0.00000000      0.00000000      0.00000000      0.00000000</v>
  </separator>
  <separator name="performance" >
   <i type="int" name="NPAR">     8</i>
   <i type="int" name="NSIM">     4</i>
   <i type="int" name="NBLK">    -1</i>
   <i type="logical" name="LPLANE"> T  </i>
   <i type="logical" name="LSCALAPACK"> T  </i>
   <i type="logical" name="LSCAAWARE"> F  </i>
   <i type="logical" name="LSCALU"> F  </i>
   <i type="logical" name="LASYNC"> F  </i>
   <i type="logical" name="LORBITALREAL"> F  </i>
  </separator>
  <separator name="miscellaneous" >
   <i type="int" name="IDIOT">     3</i>
   <i type="int" name="PHON_NSTRUCT">    -1</i>
   <i type="logical" name="LMUSIC"> F  </i>
   <v name="POMASS">     35.45300000     22.99000000     16.00000000</v>
   <v name="DARWINR">      0.00000000      0.00000000      0.00000000</v>
   <v name="DARWINV">      1.00000000      1.00000000      1.00000000</v>
   <i type="logical" name="LCORR"> T  </i>
  </separator>
  <i type="logical" name="GGA_COMPAT"> T  </i>
  <i type="logical" name="LBERRY"> F  </i>
  <i type="int" name="ICORELEVEL">     0</i>
  <i type="logical" name="LDAU"> F  </i>
  <i type="int" name="I_CONSTRAINED_M">     0</i>
  <separator name="electronic exchange-correlation" >
   <i type="string" name="GGA">PE</i>
   <i type="int" name="VOSKOWN">     0</i>
   <i type="logical" name="LHFCALC"> F  </i>
   <i type="string" name="PRECFOCK"></i>
   <i type="logical" name="LSYMGRAD"> F  </i>
   <i type="logical" name="LHFONE"> F  </i>
   <i type="logical" name="LRHFCALC"> F  </i>
   <i type="logical" name="LTHOMAS"> F  </i>
   <i type="logical" name="LMODELHF"> F  </i>
   <i type="logical" name="LFOCKACE"> F  </i>
   <i name="ENCUT4O">     -1.00000000</i>
   <i type="int" name="EXXOEP">     0</i>
   <i type="int" name="FOURORBIT">     0</i>
   <i name="AEXX">      0.00000000</i>
   <i name="HFALPHA">      0.00000000</i>
   <i name="MCALPHA">      0.00000000</i>
   <i name="ALDAX">      1.00000000</i>
   <i name="AGGAX">      1.00000000</i>
   <i name="ALDAC">      1.00000000</i>
   <i name="AGGAC">      1.00000000</i>
   <i type="int" name="NKREDX">     1</i>
   <i type="int" name="NKREDY">     1</i>
   <i type="int" name="NKREDZ">     1</i>
   <i type="logical" name="SHIFTRED"> F  </i>
   <i type="logical" name="ODDONLY"> F  </i>
   <i type="logical" name="EVENONLY"> F  </i>
   <i type="int" name="LMAXFOCK">     0</i>
   <i type="int" name="NMAXFOCKAE">     0</i>
   <i type="logical" name="LFOCKAEDFT"> F  </i>
   <i name="HFSCREEN">      0.00000000</i>
   <i name="HFSCREENC">      0.00000000</i>
   <i type="int" name="NBANDSGWLOW">     0</i>
  </separator>
  <separator name="vdW DFT" >
   <i type="logical" name="LUSE_VDW"> F  </i>
   <i name="Zab_VDW">     -0.84910000</i>
   <i name="PARAM1">      0.12340000</i>
   <i name="PARAM2">      1.00000000</i>
   <i name="PARAM3">      0.00000000</i>
  </separator>
  <separator name="model GW" >
   <i type="int" name="MODEL_GW">     0</i>
   <i name="MODEL_EPS0">     15.74874500</i>
   <i name="MODEL_ALPHA">      1.00000000</i>
  </separator>
  <separator name="linear response parameters" >
   <i type="logical" name="LEPSILON"> F  </i>
   <i type="logical" name="LRPA"> F  </i>
   <i type="logical" name="LNABLA"> F  </i>
   <i type="logical" name="LVEL"> F  </i>
   <i type="int" name="KINTER">     0</i>
   <i name="CSHIFT">      0.10000000</i>
   <i name="OMEGAMAX">     -1.00000000</i>
   <i name="DEG_THRESHOLD">      0.00200000</i>
   <i name="RTIME">     -0.10000000</i>
   <i name="WPLASMAI">      0.00000000</i>
   <v name="DFIELD">      0.00000000      0.00000000      0.00000000</v>
   <v name="WPLASMA">      0.00000000      0.00000000      0.00000000      0.00000000      0.00000000      0.00000000      0.00000000      0.00000000      0.00000000</v>
  </separator>
  <separator name="orbital magnetization" >
   <i type="logical" name="NUCIND"> F  </i>
   <v name="MAGPOS">      0.00000000      0.00000000      0.00000000</v>
   <i type="logical" name="LNICSALL"> T  </i>
   <i type="logical" name="ORBITALMAG"> F  </i>
   <i type="logical" name="LMAGBLOCH"> F  </i>
   <i type="logical" name="LCHIMAG"> F  </i>
   <i type="logical" name="LGAUGE"> T  </i>
   <i type="int" name="MAGATOM">     0</i>
   <v name="MAGDIPOL">      0.00000000      0.00000000      0.00000000</v>
   <v name="AVECCONST">      0.00000000      0.00000000      0.00000000</v>
  </separator>
  <separator name="response functions" >
   <i type="logical" name="LFINITE_TEMPERATURE"> F  </i>
   <i type="logical" name="LADDER"> F  </i>
   <i type="logical" name="LRPAFORCE"> F  </i>
   <i type="logical" name="LFXC"> F  </i>
   <i type="logical" name="LHARTREE"> T  </i>
   <i type="int" name="IBSE">     0</i>
   <v type="int" name="KPOINT">    -1     0     0     0</v>
   <i type="logical" name="LTCTC"> F  </i>
   <i type="logical" name="LTCTE"> F  </i>
   <i type="logical" name="LTETE"> F  </i>
   <i type="logical" name="LTRIPLET"> F  </i>
   <i type="logical" name="LFXCEPS"> F  </i>
   <i type="logical" name="LFXHEG"> F  </i>
   <i type="int" name="NATURALO">     2</i>
   <i type="logical" name="LHOLEGF"> F  </i>
   <i type="logical" name="L2ORDER"> F  </i>
   <i type="logical" name="LDMP1"> F  </i>
   <i type="logical" name="LMP2LT"> F  </i>
   <i type="logical" name="LSMP2LT"> F  </i>
   <i type="logical" name="LGWLF"> F  </i>
   <i name="ENCUTGW">     -2.00000000</i>
   <i name="ENCUTGWSOFT">     -2.00000000</i>
   <i name="ENCUTLF">     -1.00000000</i>
   <i type="logical" name="LESF_SPLINES"> F  </i>
   <i type="int" name="LMAXMP2">    -1</i>
   <i name="SCISSOR">      0.00000000</i>
   <i type="int" name="NOMEGA">     0</i>
   <i type="int" name="NOMEGAR">     0</i>
   <i type="int" name="NBANDSGW">    -1</i>
   <i type="int" name="NBANDSO">    -1</i>
   <i type="int" name="NBANDSV">    -1</i>
   <i type="int" name="NELM">   150</i>
   <i type="int" name="NELMHF">     1</i>
   <i type="int" name="DIM">     3</i>
   <i type="int" name="IESPILON">     4</i>
   <i type="int" name="ANTIRES">     0</i>
   <i name="OMEGAMAX">    -30.00000000</i>
   <i name="OMEGAMIN">    -30.00000000</i>
   <i name="OMEGATL">   -200.00000000</i>
   <i type="int" name="OMEGAGRID">     0</i>
   <i name="CSHIFT">     -0.10000000</i>
   <i type="logical" name="LSELFENERGY"> F  </i>
   <i type="logical" name="LSPECTRAL"> F  </i>
   <i type="logical" name="LSPECTRALGW"> F  </i>
   <i type="logical" name="LSINGLES"> F  </i>
   <i type="logical" name="LFERMIGW"> F  </i>
   <i type="logical" name="ODDONLYGW"> F  </i>
   <i type="logical" name="EVENONLYGW"> F  </i>
   <i type="int" name="NKREDLFX">     1</i>
   <i type="int" name="NKREDLFY">     1</i>
   <i type="int" name="NKREDLFZ">     1</i>
   <i type="int" name="MAXMEM">  2800</i>
   <i type="int" name="TELESCOPE">     0</i>
   <i type="int" name="NTAUPAR">    -1</i>
   <i type="int" name="NOMEGAPAR">    -1</i>
   <i name="DAMP_NEWTON">      0.80000001</i>
   <i name="LAMBDA">      1.00000000</i>
  </separator>
  <separator name="External order field" >
   <i name="OFIELD_KAPPA">      0.00000000</i>
   <v name="OFIELD_K">      0.00000000      0.00000000      0.00000000</v>
   <i name="OFIELD_Q6_NEAR">      0.00000000</i>
   <i name="OFIELD_Q6_FAR">      0.00000000</i>
   <i name="OFIELD_A">      0.00000000</i>
  </separator>
 </parameters>
 <atominfo>
  <atoms>     268 </atoms>
  <types>       3 </types>
  <array name="atoms" >
   <dimension dim="1">ion</dimension>
   <field type="string">element</field>
   <field type="int">atomtype</field>
   <set>
    <rc><c>Cl</c><c>   1</c></rc>
    <rc><c>Cl</c><c>   1</c></rc>
    <rc><c>Cl</c><c>   1</c></rc>
    <rc><c>Cl</c><c>   1</c></rc>
    <rc><c>Cl</c><c>   1</c></rc>
    <rc><c>Cl</c><c>   1</c></rc>
    <rc><c>Cl</c><c>   1</c></rc>
    <rc><c>Cl</c><c>   1</c></rc>
    <rc><c>Cl</c><c>   1</c></rc>
    <rc><c>Cl</c><c>   1</c></rc>
    <rc><c>Cl</c><c>   1</c></rc>
    <rc><c>Cl</c><c>   1</c></rc>
    <rc><c>Cl</c><c>   1</c></rc>
    <rc><c>Cl</c><c>   1</c></rc>
    <rc><c>Cl</c><c>   1</c></rc>
    <rc><c>Cl</c><c>   1</c></rc>
    <rc><c>Cl</c><c>   1</c></rc>
    <rc><c>Cl</c><c>   1</c></rc>
    <rc><c>Cl</c><c>   1</c></rc>
    <rc><c>Cl</c><c>   1</c></rc>
    <rc><c>Cl</c><c>   1</c></rc>
    <rc><c>Cl</c><c>   1</c></rc>
    <rc><c>Cl</c><c>   1</c></rc>
    <rc><c>Cl</c><c>   1</c></rc>
    <rc><c>Cl</c><c>   1</c></rc>
    <rc><c>Cl</c><c>   1</c></rc>
    <rc><c>Cl</c><c>   1</c></rc>
    <rc><c>Cl</c><c>   1</c></rc>
    <rc><c>Cl</c><c>   1</c></rc>
    <rc><c>Cl</c><c>   1</c></rc>
    <rc><c>Cl</c><c>   1</c></rc>
    <rc><c>Cl</c><c>   1</c></rc>
    <rc><c>Na</c><c>   2</c></rc>
    <rc><c>Na</c><c>   2</c></rc>
    <rc><c>Na</c><c>   2</c></rc>
    <rc><c>Na</c><c>   2</c></rc>
    <rc><c>Na</c><c>   2</c></rc>
    <rc><c>Na</c><c>   2</c></rc>
    <rc><c>Na</c><c>   2</c></rc>
    <rc><c>Na</c><c>   2</c></rc>
    <rc><c>Na</c><c>   2</c></rc>
    <rc><c>Na</c><c>   2</c></rc>
    <rc><c>Na</c><c>   2</c></rc>
    <rc><c>Na</c><c>   2</c></rc>
    <rc><c>Na</c><c>   2</c></rc>
    <rc><c>Na</c><c>   2</c></rc>
    <rc><c>Na</c><c>   2</c></rc>
    <rc><c>Na</c><c>   2</c></rc>
    <rc><c>Na</c><c>   2</c></rc>
    <rc><c>Na</c><c>   2</c></rc>
    <rc><c>Na</c><c>   2</c></rc>
    <rc><c>Na</c><c>   2</c></rc>
    <rc><c>Na</c><c>   2</c></rc>
    <rc><c>Na</c><c>   2</c></rc>
    <rc><c>Na</c><c>   2</c></rc>
    <rc><c>Na</c><c>   2</c></rc>
    <rc><c>Na</c><c>   2</c></rc>
    <rc><c>Na</c><c>   2</c></rc>
    <rc><c>Na</c><c>   2</c></rc>
    <rc><c>Na</c><c>   2</c></rc>
    <rc><c>Na</c><c>   2</c></rc>
    <rc><c>Na</c><c>   2</c></rc>
    <rc><c>Na</c><c>   2</c></rc>
    <rc><c>Na</c><c>   2</c></rc>
    <rc><c>Na</c><c>   2</c></rc>
    <rc><c>Na</c><c>   2</c></rc>
    <rc><c>Na</c><c>   2</c></rc>
    <rc><c>Na</c><c>   2</c></rc>
    <rc><c>Na</c><c>   2</c></rc>
    <rc><c>Na</c><c>   2</c></rc>
    <rc><c>Na</c><c>   2</c></rc>
    <rc><c>Na</c><c>   2</c></rc>
    <rc><c>Na</c><c>   2</c></rc>
    <rc><c>Na</c><c>   2</c></rc>
    <rc><c>Na</c><c>   2</c></rc>
    <rc><c>Na</c><c>   2</c></rc>
    <rc><c>Na</c><c>   2</c></rc>
    <rc><c>Na</c><c>   2</c></rc>
    <rc><c>Na</c><c>   2</c></rc>
    <rc><c>Na</c><c>   2</c></rc>
    <rc><c>Na</c><c>   2</c></rc>
    <rc><c>Na</c><c>   2</c></rc>
    <rc><c>Na</c><c>   2</c></rc>
    <rc><c>Na</c><c>   2</c></rc>
    <rc><c>Na</c><c>   2</c></rc>
    <rc><c>Na</c><c>   2</c></rc>
    <rc><c>Na</c><c>   2</c></rc>
    <rc><c>Na</c><c>   2</c></rc>
    <rc><c>Na</c><c>   2</c></rc>
    <rc><c>Na</c><c>   2</c></rc>
    <rc><c>Na</c><c>   2</c></rc>
    <rc><c>Na</c><c>   2</c></rc>
    <rc><c>Na</c><c>   2</c></rc>
    <rc><c>Na</c><c>   2</c></rc>
    <rc><c>Na</c><c>   2</c></rc>
    <rc><c>Na</c><c>   2</c></rc>
    <rc><c>Na</c><c>   2</c></rc>
    <rc><c>Na</c><c>   2</c></rc>
    <rc><c>Na</c><c>   2</c></rc>
    <rc><c>Na</c><c>   2</c></rc>
    <rc><c>Na</c><c>   2</c></rc>
    <rc><c>Na</c><c>   2</c></rc>
    <rc><c>Na</c><c>   2</c></rc>
    <rc><c>Na</c><c>   2</c></rc>
    <rc><c>Na</c><c>   2</c></rc>
    <rc><c>Na</c><c>   2</c></rc>
    <rc><c>Na</c><c>   2</c></rc>
    <rc><c>Na</c><c>   2</c></rc>
    <rc><c>Na</c><c>   2</c></rc>
    <rc><c>Na</c><c>   2</c></rc>
    <rc><c>Na</c><c>   2</c></rc>
    <rc><c>Na</c><c>   2</c></rc>
    <rc><c>Na</c><c>   2</c></rc>
    <rc><c>Na</c><c>   2</c></rc>
    <rc><c>Na</c><c>   2</c></rc>
    <rc><c>Na</c><c>   2</c></rc>
    <rc><c>Na</c><c>   2</c></rc>
    <rc><c>Na</c><c>   2</c></rc>
    <rc><c>Na</c><c>   2</c></rc>
    <rc><c>Na</c><c>   2</c></rc>
    <rc><c>Na</c><c>   2</c></rc>
    <rc><c>Na</c><c>   2</c></rc>
    <rc><c>Na</c><c>   2</c></rc>
    <rc><c>Na</c><c>   2</c></rc>
    <rc><c>Na</c><c>   2</c></rc>
    <rc><c>Na</c><c>   2</c></rc>
    <rc><c>Na</c><c>   2</c></rc>
    <rc><c>Na</c><c>   2</c></rc>
    <rc><c>Na</c><c>   2</c></rc>
    <rc><c>Na</c><c>   2</c></rc>
    <rc><c>Na</c><c>   2</c></rc>
    <rc><c>Na</c><c>   2</c></rc>
    <rc><c>Na</c><c>   2</c></rc>
    <rc><c>Na</c><c>   2</c></rc>
    <rc><c>Na</c><c>   2</c></rc>
    <rc><c>Na</c><c>   2</c></rc>
    <rc><c>Na</c><c>   2</c></rc>
    <rc><c>Na</c><c>   2</c></rc>
    <rc><c>Na</c><c>   2</c></rc>
    <rc><c>Na</c><c>   2</c></rc>
    <rc><c>Na</c><c>   2</c></rc>
    <rc><c>Na</c><c>   2</c></rc>
    <rc><c>Na</c><c>   2</c></rc>
    <rc><c>Na</c><c>   2</c></rc>
    <rc><c>Na</c><c>   2</c></rc>
    <rc><c>Na</c><c>   2</c></rc>
    <rc><c>Na</c><c>   2</c></rc>
    <rc><c>Na</c><c>   2</c></rc>
    <rc><c>Na</c><c>   2</c></rc>
    <rc><c>Na</c><c>   2</c></rc>
    <rc><c>Na</c><c>   2</c></rc>
    <rc><c>Na</c><c>   2</c></rc>
    <rc><c>Na</c><c>   2</c></rc>
    <rc><c>Na</c><c>   2</c></rc>
    <rc><c>Na</c><c>   2</c></rc>
    <rc><c>Na</c><c>   2</c></rc>
    <rc><c>Na</c><c>   2</c></rc>
    <rc><c>Na</c><c>   2</c></rc>
    <rc><c>Na</c><c>   2</c></rc>
    <rc><c>Na</c><c>   2</c></rc>
    <rc><c>Na</c><c>   2</c></rc>
    <rc><c>Na</c><c>   2</c></rc>
    <rc><c>Na</c><c>   2</c></rc>
    <rc><c>Na</c><c>   2</c></rc>
    <rc><c>Na</c><c>   2</c></rc>
    <rc><c>Na</c><c>   2</c></rc>
    <rc><c>Na</c><c>   2</c></rc>
    <rc><c>Na</c><c>   2</c></rc>
    <rc><c>Na</c><c>   2</c></rc>
    <rc><c>Na</c><c>   2</c></rc>
    <rc><c>Na</c><c>   2</c></rc>
    <rc><c>Na</c><c>   2</c></rc>
    <rc><c>Na</c><c>   2</c></rc>
    <rc><c>Na</c><c>   2</c></rc>
    <rc><c>Na</c><c>   2</c></rc>
    <rc><c>Na</c><c>   2</c></rc>
    <rc><c>Na</c><c>   2</c></rc>
    <rc><c>Na</c><c>   2</c></rc>
    <rc><c>Na</c><c>   2</c></rc>
    <rc><c>Na</c><c>   2</c></rc>
    <rc><c>Na</c><c>   2</c></rc>
    <rc><c>Na</c><c>   2</c></rc>
    <rc><c>Na</c><c>   2</c></rc>
    <rc><c>Na</c><c>   2</c></rc>
    <rc><c>Na</c><c>   2</c></rc>
    <rc><c>Na</c><c>   2</c></rc>
    <rc><c>Na</c><c>   2</c></rc>
    <rc><c>Na</c><c>   2</c></rc>
    <rc><c>Na</c><c>   2</c></rc>
    <rc><c>Na</c><c>   2</c></rc>
    <rc><c>Na</c><c>   2</c></rc>
    <rc><c>Na</c><c>   2</c></rc>
    <rc><c>Na</c><c>   2</c></rc>
    <rc><c>Na</c><c>   2</c></rc>
    <rc><c>Na</c><c>   2</c></rc>
    <rc><c>Na</c><c>   2</c></rc>
    <rc><c>Na</c><c>   2</c></rc>
    <rc><c>Na</c><c>   2</c></rc>
    <rc><c>Na</c><c>   2</c></rc>
    <rc><c>Na</c><c>   2</c></rc>
    <rc><c>Na</c><c>   2</c></rc>
    <rc><c>Na</c><c>   2</c></rc>
    <rc><c>Na</c><c>   2</c></rc>
    <rc><c>Na</c><c>   2</c></rc>
    <rc><c>Na</c><c>   2</c></rc>
    <rc><c>Na</c><c>   2</c></rc>
    <rc><c>Na</c><c>   2</c></rc>
    <rc><c>Na</c><c>   2</c></rc>
    <rc><c>Na</c><c>   2</c></rc>
    <rc><c>Na</c><c>   2</c></rc>
    <rc><c>Na</c><c>   2</c></rc>
    <rc><c>Na</c><c>   2</c></rc>
    <rc><c>Na</c><c>   2</c></rc>
    <rc><c>Na</c><c>   2</c></rc>
    <rc><c>Na</c><c>   2</c></rc>
    <rc><c>Na</c><c>   2</c></rc>
    <rc><c>Na</c><c>   2</c></rc>
    <rc><c>Na</c><c>   2</c></rc>
    <rc><c>Na</c><c>   2</c></rc>
    <rc><c>Na</c><c>   2</c></rc>
    <rc><c>Na</c><c>   2</c></rc>
    <rc><c>Na</c><c>   2</c></rc>
    <rc><c>Na</c><c>   2</c></rc>
    <rc><c>Na</c><c>   2</c></rc>
    <rc><c>Na</c><c>   2</c></rc>
    <rc><c>Na</c><c>   2</c></rc>
    <rc><c>Na</c><c>   2</c></rc>
    <rc><c>Na</c><c>   2</c></rc>
    <rc><c>Na</c><c>   2</c></rc>
    <rc><c>Na</c><c>   2</c></rc>
    <rc><c>Na</c><c>   2</c></rc>
    <rc><c>Na</c><c>   2</c></rc>
    <rc><c>Na</c><c>   2</c></rc>
    <rc><c>Na</c><c>   2</c></rc>
    <rc><c>Na</c><c>   2</c></rc>
    <rc><c>Na</c><c>   2</c></rc>
    <rc><c>O </c><c>   3</c></rc>
    <rc><c>O </c><c>   3</c></rc>
    <rc><c>O </c><c>   3</c></rc>
    <rc><c>O </c><c>   3</c></rc>
    <rc><c>O </c><c>   3</c></rc>
    <rc><c>O </c><c>   3</c></rc>
    <rc><c>O </c><c>   3</c></rc>
    <rc><c>O </c><c>   3</c></rc>
    <rc><c>O </c><c>   3</c></rc>
    <rc><c>O </c><c>   3</c></rc>
    <rc><c>O </c><c>   3</c></rc>
    <rc><c>O </c><c>   3</c></rc>
    <rc><c>O </c><c>   3</c></rc>
    <rc><c>O </c><c>   3</c></rc>
    <rc><c>O </c><c>   3</c></rc>
    <rc><c>O </c><c>   3</c></rc>
    <rc><c>O </c><c>   3</c></rc>
    <rc><c>O </c><c>   3</c></rc>
    <rc><c>O </c><c>   3</c></rc>
    <rc><c>O </c><c>   3</c></rc>
    <rc><c>O </c><c>   3</c></rc>
    <rc><c>O </c><c>   3</c></rc>
    <rc><c>O </c><c>   3</c></rc>
    <rc><c>O </c><c>   3</c></rc>
    <rc><c>O </c><c>   3</c></rc>
    <rc><c>O </c><c>   3</c></rc>
    <rc><c>O </c><c>   3</c></rc>
    <rc><c>O </c><c>   3</c></rc>
    <rc><c>O </c><c>   3</c></rc>
    <rc><c>O </c><c>   3</c></rc>
    <rc><c>O </c><c>   3</c></rc>
    <rc><c>O </c><c>   3</c></rc>
   </set>
  </array>
  <array name="atomtypes" >
   <dimension dim="1">type</dimension>
   <field type="int">atomspertype</field>
   <field type="string">element</field>
   <field>mass</field>
   <field>valence</field>
   <field type="string">pseudopotential</field>
   <set>
    <rc><c>  32</c><c>Cl</c><c>     35.45300000</c><c>      7.00000000</c><c>  PAW_PBE Cl 06Sep2000                  </c></rc>
    <rc><c> 204</c><c>Na</c><c>     22.99000000</c><c>      1.00000000</c><c>  PAW_PBE Na 08Apr2002                  </c></rc>
    <rc><c>  32</c><c>O </c><c>     16.00000000</c><c>      6.00000000</c><c>  PAW_PBE O 08Apr2002                   </c></rc>
   </set>
  </array>
 </atominfo>
 <structure name="initialpos" >
  <crystal>
   <varray name="basis" >
    <v>      -8.90732730       8.90732730       0.00000000 </v>
    <v>     -17.81465460       0.00000000       0.00000000 </v>
    <v>       0.00000000       0.00000000      44.33070903 </v>
   </varray>
   <i name="volume">   7034.43943350 </i>
   <varray name="rec_basis" >
    <v>       0.00000000       0.11226712       0.00000000 </v>
    <v>      -0.05613356      -0.05613356       0.00000000 </v>
    <v>       0.00000000       0.00000000       0.02255773 </v>
   </varray>
  </crystal>
  <varray name="positions" >
   <v>       0.15284772       0.05351036       0.08469459 </v>
   <v>       0.15284652       0.05351208       0.18738864 </v>
   <v>       0.15284543       0.05351245       0.28917208 </v>
   <v>       0.15284798       0.05351047       0.38979769 </v>
   <v>       0.15284775       0.30351072       0.08471822 </v>
   <v>       0.15284747       0.30351212       0.18738088 </v>
   <v>       0.15285008       0.30351096       0.28914073 </v>
   <v>       0.15284815       0.30351038       0.38984689 </v>
   <v>       0.15284786       0.55351012       0.08469460 </v>
   <v>       0.15284974       0.55351108       0.18738805 </v>
   <v>       0.15284940       0.55351193       0.28917263 </v>
   <v>       0.15284788       0.55351070       0.38979778 </v>
   <v>       0.15284781       0.80351055       0.08471817 </v>
   <v>       0.15284474       0.80351248       0.18738015 </v>
   <v>       0.15284693       0.80351188       0.28914133 </v>
   <v>       0.15284763       0.80351103       0.38984690 </v>
   <v>       0.65284772       0.05351036       0.08469459 </v>
   <v>       0.65284652       0.05351208       0.18738865 </v>
   <v>       0.65284543       0.05351245       0.28917209 </v>
   <v>       0.65284798       0.05351047       0.38979769 </v>
   <v>       0.65284775       0.30351072       0.08471822 </v>
   <v>       0.65284746       0.30351212       0.18738088 </v>
   <v>       0.65285007       0.30351095       0.28914074 </v>
   <v>       0.65284813       0.30351038       0.38984688 </v>
   <v>       0.65284786       0.55351012       0.08469460 </v>
   <v>       0.65284974       0.55351108       0.18738805 </v>
   <v>       0.65284939       0.55351194       0.28917264 </v>
   <v>       0.65284788       0.55351070       0.38979776 </v>
   <v>       0.65284781       0.80351055       0.08471817 </v>
   <v>       0.65284474       0.80351248       0.18738014 </v>
   <v>       0.65284693       0.80351188       0.28914133 </v>
   <v>       0.65284765       0.80351103       0.38984689 </v>
   <v>       0.40284855       0.05350907       0.08544990 </v>
   <v>       0.15264987       0.17857688       0.03384518 </v>
   <v>       0.40284808       0.05351090       0.18742341 </v>
   <v>       0.15282029       0.17972408       0.13645686 </v>
   <v>       0.40284852       0.05350926       0.28920990 </v>
   <v>       0.15262545       0.17837590       0.23835750 </v>
   <v>       0.40285012       0.05350844       0.39016408 </v>
   <v>       0.15277608       0.17777044       0.34026703 </v>
   <v>       0.40304201       0.17837869       0.03383663 </v>
   <v>       0.40284974       0.30350828       0.08549788 </v>
   <v>       0.15305427       0.42843836       0.03384517 </v>
   <v>       0.40540709       0.17718773       0.13631647 </v>
   <v>       0.40284583       0.30351908       0.18739780 </v>
   <v>       0.15284054       0.42732292       0.13645684 </v>
   <v>       0.40249730       0.17860026       0.23834786 </v>
   <v>       0.40284831       0.30350903       0.28926139 </v>
   <v>       0.15306863       0.42865520       0.23835741 </v>
   <v>       0.40116663       0.17935247       0.34022735 </v>
   <v>       0.40284951       0.30350894       0.39032152 </v>
   <v>       0.15292232       0.42924975       0.34026685 </v>
   <v>       0.40264864       0.42866250       0.03384190 </v>
   <v>       0.40284882       0.55350865       0.08545021 </v>
   <v>       0.15264994       0.67857687       0.03384520 </v>
   <v>       0.40027996       0.42983885       0.13631565 </v>
   <v>       0.40284669       0.55350971       0.18742385 </v>
   <v>       0.15282125       0.67972379       0.13645700 </v>
   <v>       0.40320817       0.42842527       0.23834888 </v>
   <v>       0.40283558       0.55351239       0.28920780 </v>
   <v>       0.15262453       0.67837658       0.23835723 </v>
   <v>       0.40453116       0.42766586       0.34022659 </v>
   <v>       0.40284982       0.55350885       0.39016445 </v>
   <v>       0.15277568       0.67777060       0.34026686 </v>
   <v>       0.40304198       0.67837865       0.03383664 </v>
   <v>       0.40284996       0.80350794       0.08549755 </v>
   <v>       0.15305437       0.92843829       0.03384514 </v>
   <v>       0.40540802       0.67718543       0.13631647 </v>
   <v>       0.40284568       0.80351057       0.18739722 </v>
   <v>       0.15283943       0.92732325       0.13645633 </v>
   <v>       0.40249729       0.67860044       0.23834788 </v>
   <v>       0.40284962       0.80351021       0.28926072 </v>
   <v>       0.15306969       0.92865292       0.23835772 </v>
   <v>       0.40116578       0.67935390       0.34022700 </v>
   <v>       0.40284928       0.80350929       0.39032106 </v>
   <v>       0.15292270       0.92924917       0.34026653 </v>
   <v>       0.40264872       0.92866241       0.03384188 </v>
   <v>       0.40028078       0.92983869       0.13631573 </v>
   <v>       0.40320681       0.92841588       0.23834502 </v>
   <v>       0.40453201       0.92766548       0.34022657 </v>
   <v>       0.90284852       0.05350908       0.08544989 </v>
   <v>       0.65264985       0.17857689       0.03384518 </v>
   <v>       0.90284806       0.05351091       0.18742341 </v>
   <v>       0.65282029       0.17972410       0.13645686 </v>
   <v>       0.90284841       0.05350928       0.28920990 </v>
   <v>       0.65262544       0.17837590       0.23835749 </v>
   <v>       0.90285028       0.05350834       0.39016407 </v>
   <v>       0.65277608       0.17777044       0.34026705 </v>
   <v>       0.90304201       0.17837868       0.03383659 </v>
   <v>       0.90284973       0.30350827       0.08549786 </v>
   <v>       0.65305424       0.42843837       0.03384514 </v>
   <v>       0.90540711       0.17718771       0.13631646 </v>
   <v>       0.90284585       0.30351906       0.18739779 </v>
   <v>       0.65284056       0.42732290       0.13645682 </v>
   <v>       0.90249732       0.17860024       0.23834787 </v>
   <v>       0.90284825       0.30350906       0.28926140 </v>
   <v>       0.65306865       0.42865519       0.23835741 </v>
   <v>       0.90116649       0.17935253       0.34022734 </v>
   <v>       0.90284965       0.30350883       0.39032153 </v>
   <v>       0.65292231       0.42924977       0.34026690 </v>
   <v>       0.90264867       0.42866248       0.03384186 </v>
   <v>       0.90284880       0.55350865       0.08545020 </v>
   <v>       0.65264995       0.67857687       0.03384519 </v>
   <v>       0.90027996       0.42983884       0.13631562 </v>
   <v>       0.90284663       0.55350972       0.18742385 </v>
   <v>       0.65282125       0.67972381       0.13645699 </v>
   <v>       0.90320819       0.42842526       0.23834888 </v>
   <v>       0.90283557       0.55351241       0.28920780 </v>
   <v>       0.65262453       0.67837657       0.23835723 </v>
   <v>       0.90453103       0.42766593       0.34022661 </v>
   <v>       0.90285004       0.55350876       0.39016445 </v>
   <v>       0.65277568       0.67777056       0.34026687 </v>
   <v>       0.90304202       0.67837863       0.03383661 </v>
   <v>       0.90284993       0.80350794       0.08549754 </v>
   <v>       0.65305435       0.92843830       0.03384513 </v>
   <v>       0.90540798       0.67718544       0.13631647 </v>
   <v>       0.90284568       0.80351056       0.18739723 </v>
   <v>       0.65283944       0.92732322       0.13645633 </v>
   <v>       0.90249730       0.67860043       0.23834789 </v>
   <v>       0.90284958       0.80351022       0.28926074 </v>
   <v>       0.65306970       0.92865292       0.23835773 </v>
   <v>       0.90116562       0.67935398       0.34022702 </v>
   <v>       0.90284949       0.80350918       0.39032108 </v>
   <v>       0.65292271       0.92924917       0.34026659 </v>
   <v>       0.90264872       0.92866241       0.03384186 </v>
   <v>       0.90028077       0.92983870       0.13631572 </v>
   <v>       0.90320683       0.92841587       0.23834501 </v>
   <v>       0.90453189       0.92766554       0.34022658 </v>
   <v>       0.16946254       0.06701966       0.50199610 </v>
   <v>       0.16986781       0.23320294       0.45674011 </v>
   <v>       0.16943331       0.06710608       0.59419062 </v>
   <v>       0.16958320       0.23360491       0.54629070 </v>
   <v>       0.16945235       0.06706374       0.68804972 </v>
   <v>       0.16941144       0.23378763       0.64196413 </v>
   <v>       0.16941167       0.06699651       0.78093054 </v>
   <v>       0.16951626       0.23368146       0.73485510 </v>
   <v>       0.16960188       0.06693346       0.87662644 </v>
   <v>       0.16945761       0.23363852       0.82872385 </v>
   <v>       0.16924332       0.06752149       0.96614694 </v>
   <v>       0.16946712       0.23374939       0.92094259 </v>
   <v>       0.50238900       0.06606728       0.50213790 </v>
   <v>       0.50344374       0.23288222       0.45682916 </v>
   <v>       0.50087630       0.06686609       0.59452750 </v>
   <v>       0.50433857       0.23160937       0.54687660 </v>
   <v>       0.50301808       0.06542182       0.68772244 </v>
   <v>       0.50327308       0.23266313       0.64134737 </v>
   <v>       0.50334352       0.06599824       0.78156537 </v>
   <v>       0.50292150       0.23211641       0.73513621 </v>
   <v>       0.50428044       0.06500453       0.87601682 </v>
   <v>       0.50079073       0.23366168       0.82838474 </v>
   <v>       0.50379592       0.06596105       0.96608045 </v>
   <v>       0.50233400       0.23270471       0.92077831 </v>
   <v>       0.16945483       0.40028243       0.50192227 </v>
   <v>       0.16953540       0.56682366       0.45681756 </v>
   <v>       0.16948080       0.40035394       0.59417929 </v>
   <v>       0.16939625       0.56708928       0.54625969 </v>
   <v>       0.16954329       0.40033554       0.68803849 </v>
   <v>       0.16935699       0.56718096       0.64193211 </v>
   <v>       0.16937596       0.40040268       0.78097716 </v>
   <v>       0.16956786       0.56703498       0.73484279 </v>
   <v>       0.16944697       0.40039147       0.87662877 </v>
   <v>       0.16958999       0.56697386       0.82870155 </v>
   <v>       0.16945256       0.40049042       0.96616341 </v>
   <v>       0.16942715       0.56711173       0.92092624 </v>
   <v>       0.83653842       0.06802276       0.50216078 </v>
   <v>       0.83523760       0.23465328       0.45681935 </v>
   <v>       0.83821068       0.06710477       0.59452572 </v>
   <v>       0.83446696       0.23584530       0.54688467 </v>
   <v>       0.83584490       0.06860011       0.68777697 </v>
   <v>       0.83567434       0.23474065       0.64135432 </v>
   <v>       0.83570210       0.06803104       0.78153828 </v>
   <v>       0.83588685       0.23527095       0.73513702 </v>
   <v>       0.83464598       0.06921303       0.87603071 </v>
   <v>       0.83804448       0.23384905       0.82838270 </v>
   <v>       0.83526411       0.06806014       0.96604834 </v>
   <v>       0.83647745       0.23483561       0.92075823 </v>
   <v>       0.50232126       0.39942887       0.50212815 </v>
   <v>       0.50370696       0.56601680       0.45682548 </v>
   <v>       0.50085714       0.40019247       0.59451688 </v>
   <v>       0.50414486       0.56504001       0.54684210 </v>
   <v>       0.50293401       0.39879350       0.68772709 </v>
   <v>       0.50324739       0.56599330       0.64135170 </v>
   <v>       0.50317297       0.39936174       0.78155928 </v>
   <v>       0.50291051       0.56544977       0.73514346 </v>
   <v>       0.50436495       0.39831002       0.87601624 </v>
   <v>       0.50081701       0.56693472       0.82836534 </v>
   <v>       0.50346349       0.39950946       0.96608510 </v>
   <v>       0.50230414       0.56618648       0.92077846 </v>
   <v>       0.16932891       0.73384562       0.50198376 </v>
   <v>       0.16960487       0.90017202       0.45680547 </v>
   <v>       0.16937182       0.73377473       0.59418635 </v>
   <v>       0.16963920       0.90026173       0.54626888 </v>
   <v>       0.16951408       0.73371829       0.68804462 </v>
   <v>       0.16955288       0.90039235       0.64194666 </v>
   <v>       0.16937472       0.73382745       0.78096004 </v>
   <v>       0.16954394       0.90031390       0.73485674 </v>
   <v>       0.16969422       0.73357909       0.87661656 </v>
   <v>       0.16952106       0.90031367       0.82869405 </v>
   <v>       0.16926373       0.73415978       0.96615047 </v>
   <v>       0.16933663       0.90053112       0.92090651 </v>
   <v>       0.83679679       0.40122518       0.50211486 </v>
   <v>       0.83543733       0.56788755       0.45680411 </v>
   <v>       0.83810157       0.40048914       0.59449804 </v>
   <v>       0.83451671       0.56916561       0.54687764 </v>
   <v>       0.83587174       0.40196280       0.68776409 </v>
   <v>       0.83555053       0.56820165       0.64133938 </v>
   <v>       0.83571746       0.40142956       0.78155683 </v>
   <v>       0.83591318       0.56860118       0.73513310 </v>
   <v>       0.83470817       0.40247874       0.87600323 </v>
   <v>       0.83805456       0.56725971       0.82839560 </v>
   <v>       0.83532786       0.40131096       0.96611389 </v>
   <v>       0.83664669       0.56803357       0.92078036 </v>
   <v>       0.50238259       0.73272866       0.50211855 </v>
   <v>       0.50375490       0.89932406       0.45680890 </v>
   <v>       0.50089091       0.73349146       0.59453796 </v>
   <v>       0.50412294       0.89836693       0.54686559 </v>
   <v>       0.50293761       0.73211228       0.68774677 </v>
   <v>       0.50324223       0.89935770       0.64136649 </v>
   <v>       0.50334208       0.73269569       0.78159077 </v>
   <v>       0.50289894       0.89879061       0.73513609 </v>
   <v>       0.50430030       0.73164221       0.87600244 </v>
   <v>       0.50096586       0.90020825       0.82835819 </v>
   <v>       0.50348825       0.73283107       0.96608999 </v>
   <v>       0.50242147       0.89937058       0.92075160 </v>
   <v>       0.83651098       0.73467253       0.50214102 </v>
   <v>       0.83522434       0.90127822       0.45683152 </v>
   <v>       0.83800774       0.73393016       0.59450137 </v>
   <v>       0.83457333       0.90247481       0.54688647 </v>
   <v>       0.83586650       0.73528520       0.68778418 </v>
   <v>       0.83574657       0.90136037       0.64131563 </v>
   <v>       0.83575026       0.73478302       0.78155839 </v>
   <v>       0.83592494       0.90192115       0.73513690 </v>
   <v>       0.83467779       0.73583225       0.87600866 </v>
   <v>       0.83811792       0.90055388       0.82839546 </v>
   <v>       0.83530692       0.73473161       0.96607735 </v>
   <v>       0.83659724       0.90134250       0.92074851 </v>
   <v>       0.40284868       0.05350927       0.03486004 </v>
   <v>       0.40282178       0.05352422       0.13645976 </v>
   <v>       0.40284348       0.05352092       0.23832320 </v>
   <v>       0.40284785       0.05351046       0.34017563 </v>
   <v>       0.40285067       0.30350838       0.03487753 </v>
   <v>       0.40282292       0.30352333       0.13647287 </v>
   <v>       0.40284986       0.30350902       0.23833708 </v>
   <v>       0.40284949       0.30350888       0.34022136 </v>
   <v>       0.40284876       0.55350918       0.03486014 </v>
   <v>       0.40282319       0.55352254       0.13645946 </v>
   <v>       0.40284827       0.55350774       0.23832255 </v>
   <v>       0.40284874       0.55350975       0.34017543 </v>
   <v>       0.40285054       0.80350850       0.03487742 </v>
   <v>       0.40282180       0.80352351       0.13647188 </v>
   <v>       0.40284386       0.80352071       0.23833646 </v>
   <v>       0.40284767       0.80351107       0.34022164 </v>
   <v>       0.90284869       0.05350927       0.03486003 </v>
   <v>       0.90282177       0.05352422       0.13645976 </v>
   <v>       0.90284347       0.05352092       0.23832319 </v>
   <v>       0.90284784       0.05351046       0.34017562 </v>
   <v>       0.90285067       0.30350838       0.03487752 </v>
   <v>       0.90282292       0.30352332       0.13647285 </v>
   <v>       0.90284986       0.30350902       0.23833708 </v>
   <v>       0.90284948       0.30350888       0.34022137 </v>
   <v>       0.90284877       0.55350917       0.03486013 </v>
   <v>       0.90282318       0.55352254       0.13645945 </v>
   <v>       0.90284827       0.55350774       0.23832255 </v>
   <v>       0.90284875       0.55350974       0.34017544 </v>
   <v>       0.90285053       0.80350850       0.03487742 </v>
   <v>       0.90282180       0.80352350       0.13647188 </v>
   <v>       0.90284386       0.80352071       0.23833646 </v>
   <v>       0.90284767       0.80351107       0.34022165 </v>
  </varray>
 </structure>
 <calculation>
  <scstep>
   <time name="dav">   10.23   10.63</time>
   <time name="total">   10.43   10.84</time>
   <energy>
    <i name="alphaZ">   -178.91073301 </i>
    <i name="ewald"> 121209.20343289 </i>
    <i name="hartreedc">-147140.75542773 </i>
    <i name="XCdc">  -5937.50914241 </i>
    <i name="pawpsdc">  29633.13489558 </i>
    <i name="pawaedc"> -22042.59917747 </i>
    <i name="eentropy">     -0.26883752 </i>
    <i name="bandstr">    532.59217568 </i>
    <i name="atom">  27995.60725988 </i>
    <i name="e_fr_energy">   4070.49444590 </i>
    <i name="e_wo_entrp">   4070.76328341 </i>
    <i name="e_0_energy">   4070.62886466 </i>
   </energy>
  </scstep>
  <scstep>
   <time name="dav">   13.84   14.17</time>
   <time name="total">   13.85   14.17</time>
   <energy>
    <i name="e_fr_energy">    397.15416139 </i>
    <i name="e_wo_entrp">    397.44258988 </i>
    <i name="e_0_energy">    397.29837564 </i>
   </energy>
  </scstep>
  <scstep>
   <time name="dav">   13.11   13.78</time>
   <time name="total">   13.11   13.78</time>
   <energy>
    <i name="e_fr_energy">   -836.65029887 </i>
    <i name="e_wo_entrp">   -836.40175557 </i>
    <i name="e_0_energy">   -836.52602722 </i>
   </energy>
  </scstep>
  <scstep>
   <time name="dav">   11.31   11.85</time>
   <time name="total">   11.33   11.87</time>
   <energy>
    <i name="e_fr_energy">   -882.29590872 </i>
    <i name="e_wo_entrp">   -882.03791452 </i>
    <i name="e_0_energy">   -882.16691162 </i>
   </energy>
  </scstep>
  <scstep>
   <time name="dav">   13.20   13.81</time>
   <time name="total">   13.44   14.06</time>
   <energy>
    <i name="e_fr_energy">   -883.79526423 </i>
    <i name="e_wo_entrp">   -883.53213352 </i>
    <i name="e_0_energy">   -883.66369887 </i>
   </energy>
  </scstep>
  <scstep>
   <time name="diag">    1.54    1.61</time>
   <time name="diis">    3.39    3.48</time>
   <time name="orth">    0.59    0.59</time>
   <time name="total">    5.96    6.14</time>
   <energy>
    <i name="e_fr_energy">   -719.11765047 </i>
    <i name="e_wo_entrp">   -718.77426354 </i>
    <i name="e_0_energy">   -718.94595701 </i>
   </energy>
  </scstep>
  <scstep>
   <time name="diag">    1.66    1.74</time>
   <time name="diis">    3.86    3.88</time>
   <time name="orth">    0.57    0.57</time>
   <time name="total">    6.58    6.83</time>
   <energy>
    <i name="e_fr_energy">   -721.61785650 </i>
    <i name="e_wo_entrp">   -721.27224169 </i>
    <i name="e_0_energy">   -721.44504910 </i>
   </energy>
  </scstep>
  <scstep>
   <time name="diag">    1.59    1.67</time>
   <time name="diis">    3.49    3.53</time>
   <time name="orth">    0.60    0.65</time>
   <time name="total">    6.15    6.31</time>
   <energy>
    <i name="e_fr_energy">   -717.73309932 </i>
    <i name="e_wo_entrp">   -717.39319488 </i>
    <i name="e_0_energy">   -717.56314710 </i>
   </energy>
  </scstep>
  <scstep>
   <time name="diag">    1.70    1.72</time>
   <time name="diis">    3.46    3.48</time>
   <time name="orth">    0.79    0.80</time>
   <time name="total">    7.08    7.13</time>
   <energy>
    <i name="e_fr_energy">   -716.47822160 </i>
    <i name="e_wo_entrp">   -716.11975557 </i>
    <i name="e_0_energy">   -716.29898859 </i>
   </energy>
  </scstep>
  <scstep>
   <time name="diag">    1.63    1.71</time>
   <time name="diis">    3.73    3.75</time>
   <time name="orth">    0.55    0.61</time>
   <time name="total">    6.37    6.56</time>
   <energy>
    <i name="e_fr_energy">   -715.93343201 </i>
    <i name="e_wo_entrp">   -715.61048448 </i>
    <i name="e_0_energy">   -715.77195824 </i>
   </energy>
  </scstep>
  <scstep>
   <time name="diag">    1.65    1.79</time>
   <time name="diis">    3.40    3.48</time>
   <time name="orth">    0.55    0.61</time>
   <time name="total">    6.00    6.45</time>
   <energy>
    <i name="e_fr_energy">   -715.38159238 </i>
    <i name="e_wo_entrp">   -715.06142454 </i>
    <i name="e_0_energy">   -715.22150846 </i>
   </energy>
  </scstep>
  <scstep>
   <time name="diag">    1.53    1.54</time>
   <time name="diis">    3.48    3.71</time>
   <time name="orth">    0.58    0.58</time>
   <time name="total">    6.05    6.28</time>
   <energy>
    <i name="e_fr_energy">   -715.35652242 </i>
    <i name="e_wo_entrp">   -715.03947590 </i>
    <i name="e_0_energy">   -715.19799916 </i>
   </energy>
  </scstep>
  <scstep>
   <time name="diag">    1.61    1.62</time>
   <time name="diis">    3.95    3.99</time>
   <time name="orth">    0.58    0.58</time>
   <time name="total">    6.59    6.63</time>
   <energy>
    <i name="e_fr_energy">   -715.31384978 </i>
    <i name="e_wo_entrp">   -714.99774773 </i>
    <i name="e_0_energy">   -715.15579875 </i>
   </energy>
  </scstep>
  <scstep>
   <time name="diag">    1.69    1.74</time>
   <time name="diis">    3.96    4.18</time>
   <time name="orth">    0.59    0.59</time>
   <time name="total">    6.68    6.96</time>
   <energy>
    <i name="e_fr_energy">   -715.32022180 </i>
    <i name="e_wo_entrp">   -715.00424598 </i>
    <i name="e_0_energy">   -715.16223389 </i>
   </energy>
  </scstep>
  <scstep>
   <time name="diag">    1.60    1.61</time>
   <time name="diis">    3.71    3.79</time>
   <time name="orth">    0.61    0.61</time>
   <time name="total">    6.36    6.45</time>
   <energy>
    <i name="e_fr_energy">   -715.30144700 </i>
    <i name="e_wo_entrp">   -714.98551039 </i>
    <i name="e_0_energy">   -715.14347869 </i>
   </energy>
  </scstep>
  <scstep>
   <time name="diag">    1.80    1.81</time>
   <time name="diis">    3.82    3.93</time>
   <time name="orth">    0.57    0.57</time>
   <time name="total">    6.65    6.79</time>
   <energy>
    <i name="e_fr_energy">   -715.24139077 </i>
    <i name="e_wo_entrp">   -714.92564524 </i>
    <i name="e_0_energy">   -715.08351800 </i>
   </energy>
  </scstep>
  <scstep>
   <time name="diag">    1.54    1.54</time>
   <time name="diis">    3.40    3.79</time>
   <time name="orth">    0.56    0.57</time>
[...]
       <r>     3.4557    83.1743   756.2969 </r>
       <r>     3.5327   110.7008   764.8244 </r>
       <r>     3.6097   115.5909   773.7285 </r>
       <r>     3.6868    90.6005   780.7076 </r>
       <r>     3.7638    79.7589   786.8516 </r>
       <r>     3.8408    79.9177   793.0078 </r>
       <r>     3.9179    68.0044   798.2463 </r>
       <r>     3.9949    58.0669   802.7193 </r>
       <r>     4.0719    70.9659   808.1859 </r>
       <r>     4.1490    88.2178   814.9815 </r>
       <r>     4.2260    89.5725   821.8814 </r>
       <r>     4.3030    82.5358   828.2393 </r>
       <r>     4.3801    76.3224   834.1185 </r>
       <r>     4.4571    48.6534   837.8664 </r>
       <r>     4.5341    21.4961   839.5223 </r>
       <r>     4.6111    12.2419   840.4653 </r>
       <r>     4.6882    16.0941   841.7050 </r>
       <r>     4.7652    24.9400   843.6262 </r>
       <r>     4.8422    30.5704   845.9811 </r>
       <r>     4.9193    22.2188   847.6926 </r>
       <r>     4.9963    14.1616   848.7835 </r>
       <r>     5.0733    17.3356   850.1189 </r>
       <r>     5.1504    23.2403   851.9092 </r>
       <r>     5.2274    31.4617   854.3327 </r>
       <r>     5.3044    46.0039   857.8765 </r>
       <r>     5.3815    59.9530   862.4948 </r>
       <r>     5.4585    62.7504   867.3285 </r>
       <r>     5.5355    61.3228   872.0523 </r>
       <r>     5.6126    67.0338   877.2161 </r>
       <r>     5.6896    68.8222   882.5175 </r>
       <r>     5.7666    61.1980   887.2317 </r>
       <r>     5.8437    46.3215   890.8000 </r>
       <r>     5.9207    31.3111   893.2119 </r>
       <r>     5.9977    18.2786   894.6199 </r>
       <r>     6.0747     8.7921   895.2972 </r>
       <r>     6.1518     5.9295   895.7540 </r>
       <r>     6.2288     2.7091   895.9627 </r>
       <r>     6.3058     0.4584   895.9980 </r>
       <r>     6.3829     0.0260   896.0000 </r>
       <r>     6.4599     0.0005   896.0000 </r>
       <r>     6.5369     0.0000   896.0000 </r>
       <r>     6.6140     0.0000   896.0000 </r>
       <r>     6.6910     0.0000   896.0000 </r>
       <r>     6.7680     0.0000   896.0000 </r>
       <r>     6.8451     0.0000   896.0000 </r>
       <r>     6.9221     0.0000   896.0000 </r>
       <r>     6.9991     0.0000   896.0000 </r>
       <r>     7.0762     0.0000   896.0000 </r>
       <r>     7.1532     0.0000   896.0000 </r>
      </set>
     </set>
    </array>
   </total>
  </dos>
 </calculation>
 <structure name="finalpos" >
  <crystal>
   <varray name="basis" >
    <v>      -8.90732730       8.90732730       0.00000000 </v>
    <v>     -17.81465460       0.00000000       0.00000000 </v>
    <v>       0.00000000       0.00000000      44.33070903 </v>
   </varray>
   <i name="volume">   7034.43943350 </i>
   <varray name="rec_basis" >
    <v>       0.00000000       0.11226712       0.00000000 </v>
    <v>      -0.05613356      -0.05613356       0.00000000 </v>
    <v>       0.00000000       0.00000000       0.02255773 </v>
   </varray>
  </crystal>
  <varray name="positions" >
   <v>       0.15284772       0.05351036       0.08469459 </v>
   <v>       0.15284652       0.05351208       0.18738864 </v>
   <v>       0.15284543       0.05351245       0.28917208 </v>
   <v>       0.15284798       0.05351047       0.38979769 </v>
   <v>       0.15284775       0.30351072       0.08471822 </v>
   <v>       0.15284747       0.30351212       0.18738088 </v>
   <v>       0.15285008       0.30351096       0.28914073 </v>
   <v>       0.15284815       0.30351038       0.38984689 </v>
   <v>       0.15284786       0.55351012       0.08469460 </v>
   <v>       0.15284974       0.55351108       0.18738805 </v>
   <v>       0.15284940       0.55351193       0.28917263 </v>
   <v>       0.15284788       0.55351070       0.38979778 </v>
   <v>       0.15284781       0.80351055       0.08471817 </v>
   <v>       0.15284474       0.80351248       0.18738015 </v>
   <v>       0.15284693       0.80351188       0.28914133 </v>
   <v>       0.15284763       0.80351103       0.38984690 </v>
   <v>       0.65284772       0.05351036       0.08469459 </v>
   <v>       0.65284652       0.05351208       0.18738865 </v>
   <v>       0.65284543       0.05351245       0.28917209 </v>
   <v>       0.65284798       0.05351047       0.38979769 </v>
   <v>       0.65284775       0.30351072       0.08471822 </v>
   <v>       0.65284746       0.30351212       0.18738088 </v>
   <v>       0.65285007       0.30351095       0.28914074 </v>
   <v>       0.65284813       0.30351038       0.38984688 </v>
   <v>       0.65284786       0.55351012       0.08469460 </v>
   <v>       0.65284974       0.55351108       0.18738805 </v>
   <v>       0.65284939       0.55351194       0.28917264 </v>
   <v>       0.65284788       0.55351070       0.38979776 </v>
   <v>       0.65284781       0.80351055       0.08471817 </v>
   <v>       0.65284474       0.80351248       0.18738014 </v>
   <v>       0.65284693       0.80351188       0.28914133 </v>
   <v>       0.65284765       0.80351103       0.38984689 </v>
   <v>       0.40284855       0.05350907       0.08544990 </v>
   <v>       0.15264987       0.17857688       0.03384518 </v>
   <v>       0.40284808       0.05351090       0.18742341 </v>
   <v>       0.15282029       0.17972408       0.13645686 </v>
   <v>       0.40284852       0.05350926       0.28920990 </v>
   <v>       0.15262545       0.17837590       0.23835750 </v>
   <v>       0.40285012       0.05350844       0.39016408 </v>
   <v>       0.15277608       0.17777044       0.34026703 </v>
   <v>       0.40304201       0.17837869       0.03383663 </v>
   <v>       0.40284974       0.30350828       0.08549788 </v>
   <v>       0.15305427       0.42843836       0.03384517 </v>
   <v>       0.40540709       0.17718773       0.13631647 </v>
   <v>       0.40284583       0.30351908       0.18739780 </v>
   <v>       0.15284054       0.42732292       0.13645684 </v>
   <v>       0.40249730       0.17860026       0.23834786 </v>
   <v>       0.40284831       0.30350903       0.28926139 </v>
   <v>       0.15306863       0.42865520       0.23835741 </v>
   <v>       0.40116663       0.17935247       0.34022735 </v>
   <v>       0.40284951       0.30350894       0.39032152 </v>
   <v>       0.15292232       0.42924975       0.34026685 </v>
   <v>       0.40264864       0.42866250       0.03384190 </v>
   <v>       0.40284882       0.55350865       0.08545021 </v>
   <v>       0.15264994       0.67857687       0.03384520 </v>
   <v>       0.40027996       0.42983885       0.13631565 </v>
   <v>       0.40284669       0.55350971       0.18742385 </v>
   <v>       0.15282125       0.67972379       0.13645700 </v>
   <v>       0.40320817       0.42842527       0.23834888 </v>
   <v>       0.40283558       0.55351239       0.28920780 </v>
   <v>       0.15262453       0.67837658       0.23835723 </v>
   <v>       0.40453116       0.42766586       0.34022659 </v>
   <v>       0.40284982       0.55350885       0.39016445 </v>
   <v>       0.15277568       0.67777060       0.34026686 </v>
   <v>       0.40304198       0.67837865       0.03383664 </v>
   <v>       0.40284996       0.80350794       0.08549755 </v>
   <v>       0.15305437       0.92843829       0.03384514 </v>
   <v>       0.40540802       0.67718543       0.13631647 </v>
   <v>       0.40284568       0.80351057       0.18739722 </v>
   <v>       0.15283943       0.92732325       0.13645633 </v>
   <v>       0.40249729       0.67860044       0.23834788 </v>
   <v>       0.40284962       0.80351021       0.28926072 </v>
   <v>       0.15306969       0.92865292       0.23835772 </v>
   <v>       0.40116578       0.67935390       0.34022700 </v>
   <v>       0.40284928       0.80350929       0.39032106 </v>
   <v>       0.15292270       0.92924917       0.34026653 </v>
   <v>       0.40264872       0.92866241       0.03384188 </v>
   <v>       0.40028078       0.92983869       0.13631573 </v>
   <v>       0.40320681       0.92841588       0.23834502 </v>
   <v>       0.40453201       0.92766548       0.34022657 </v>
   <v>       0.90284852       0.05350908       0.08544989 </v>
   <v>       0.65264985       0.17857689       0.03384518 </v>
   <v>       0.90284806       0.05351091       0.18742341 </v>
   <v>       0.65282029       0.17972410       0.13645686 </v>
   <v>       0.90284841       0.05350928       0.28920990 </v>
   <v>       0.65262544       0.17837590       0.23835749 </v>
   <v>       0.90285028       0.05350834       0.39016407 </v>
   <v>       0.65277608       0.17777044       0.34026705 </v>
   <v>       0.90304201       0.17837868       0.03383659 </v>
   <v>       0.90284973       0.30350827       0.08549786 </v>
   <v>       0.65305424       0.42843837       0.03384514 </v>
   <v>       0.90540711       0.17718771       0.13631646 </v>
   <v>       0.90284585       0.30351906       0.18739779 </v>
   <v>       0.65284056       0.42732290       0.13645682 </v>
   <v>       0.90249732       0.17860024       0.23834787 </v>
   <v>       0.90284825       0.30350906       0.28926140 </v>
   <v>       0.65306865       0.42865519       0.23835741 </v>
   <v>       0.90116649       0.17935253       0.34022734 </v>
   <v>       0.90284965       0.30350883       0.39032153 </v>
   <v>       0.65292231       0.42924977       0.34026690 </v>
   <v>       0.90264867       0.42866248       0.03384186 </v>
   <v>       0.90284880       0.55350865       0.08545020 </v>
   <v>       0.65264995       0.67857687       0.03384519 </v>
   <v>       0.90027996       0.42983884       0.13631562 </v>
   <v>       0.90284663       0.55350972       0.18742385 </v>
   <v>       0.65282125       0.67972381       0.13645699 </v>
   <v>       0.90320819       0.42842526       0.23834888 </v>
   <v>       0.90283557       0.55351241       0.28920780 </v>
   <v>       0.65262453       0.67837657       0.23835723 </v>
   <v>       0.90453103       0.42766593       0.34022661 </v>
   <v>       0.90285004       0.55350876       0.39016445 </v>
   <v>       0.65277568       0.67777056       0.34026687 </v>
   <v>       0.90304202       0.67837863       0.03383661 </v>
   <v>       0.90284993       0.80350794       0.08549754 </v>
   <v>       0.65305435       0.92843830       0.03384513 </v>
   <v>       0.90540798       0.67718544       0.13631647 </v>
   <v>       0.90284568       0.80351056       0.18739723 </v>
   <v>       0.65283944       0.92732322       0.13645633 </v>
   <v>       0.90249730       0.67860043       0.23834789 </v>
   <v>       0.90284958       0.80351022       0.28926074 </v>
   <v>       0.65306970       0.92865292       0.23835773 </v>
   <v>       0.90116562       0.67935398       0.34022702 </v>
   <v>       0.90284949       0.80350918       0.39032108 </v>
   <v>       0.65292271       0.92924917       0.34026659 </v>
   <v>       0.90264872       0.92866241       0.03384186 </v>
   <v>       0.90028077       0.92983870       0.13631572 </v>
   <v>       0.90320683       0.92841587       0.23834501 </v>
   <v>       0.90453189       0.92766554       0.34022658 </v>
   <v>       0.16946254       0.06701966       0.50199610 </v>
   <v>       0.16986781       0.23320294       0.45674011 </v>
   <v>       0.16943331       0.06710608       0.59419062 </v>
   <v>       0.16958320       0.23360491       0.54629070 </v>
   <v>       0.16945235       0.06706374       0.68804972 </v>
   <v>       0.16941144       0.23378763       0.64196413 </v>
   <v>       0.16941167       0.06699651       0.78093054 </v>
   <v>       0.16951626       0.23368146       0.73485510 </v>
   <v>       0.16960188       0.06693346       0.87662644 </v>
   <v>       0.16945761       0.23363852       0.82872385 </v>
   <v>       0.16924332       0.06752149       0.96614694 </v>
   <v>       0.16946712       0.23374939       0.92094259 </v>
   <v>       0.50238900       0.06606728       0.50213790 </v>
   <v>       0.50344374       0.23288222       0.45682916 </v>
   <v>       0.50087630       0.06686609       0.59452750 </v>
   <v>       0.50433857       0.23160937       0.54687660 </v>
   <v>       0.50301808       0.06542182       0.68772244 </v>
   <v>       0.50327308       0.23266313       0.64134737 </v>
   <v>       0.50334352       0.06599824       0.78156537 </v>
   <v>       0.50292150       0.23211641       0.73513621 </v>
   <v>       0.50428044       0.06500453       0.87601682 </v>
   <v>       0.50079073       0.23366168       0.82838474 </v>
   <v>       0.50379592       0.06596105       0.96608045 </v>
   <v>       0.50233400       0.23270471       0.92077831 </v>
   <v>       0.16945483       0.40028243       0.50192227 </v>
   <v>       0.16953540       0.56682366       0.45681756 </v>
   <v>       0.16948080       0.40035394       0.59417929 </v>
   <v>       0.16939625       0.56708928       0.54625969 </v>
   <v>       0.16954329       0.40033554       0.68803849 </v>
   <v>       0.16935699       0.56718096       0.64193211 </v>
   <v>       0.16937596       0.40040268       0.78097716 </v>
   <v>       0.16956786       0.56703498       0.73484279 </v>
   <v>       0.16944697       0.40039147       0.87662877 </v>
   <v>       0.16958999       0.56697386       0.82870155 </v>
   <v>       0.16945256       0.40049042       0.96616341 </v>
   <v>       0.16942715       0.56711173       0.92092624 </v>
   <v>       0.83653842       0.06802276       0.50216078 </v>
   <v>       0.83523760       0.23465328       0.45681935 </v>
   <v>       0.83821068       0.06710477       0.59452572 </v>
   <v>       0.83446696       0.23584530       0.54688467 </v>
   <v>       0.83584490       0.06860011       0.68777697 </v>
   <v>       0.83567434       0.23474065       0.64135432 </v>
   <v>       0.83570210       0.06803104       0.78153828 </v>
   <v>       0.83588685       0.23527095       0.73513702 </v>
   <v>       0.83464598       0.06921303       0.87603071 </v>
   <v>       0.83804448       0.23384905       0.82838270 </v>
   <v>       0.83526411       0.06806014       0.96604834 </v>
   <v>       0.83647745       0.23483561       0.92075823 </v>
   <v>       0.50232126       0.39942887       0.50212815 </v>
   <v>       0.50370696       0.56601680       0.45682548 </v>
   <v>       0.50085714       0.40019247       0.59451688 </v>
   <v>       0.50414486       0.56504001       0.54684210 </v>
   <v>       0.50293401       0.39879350       0.68772709 </v>
   <v>       0.50324739       0.56599330       0.64135170 </v>
   <v>       0.50317297       0.39936174       0.78155928 </v>
   <v>       0.50291051       0.56544977       0.73514346 </v>
   <v>       0.50436495       0.39831002       0.87601624 </v>
   <v>       0.50081701       0.56693472       0.82836534 </v>
   <v>       0.50346349       0.39950946       0.96608510 </v>
   <v>       0.50230414       0.56618648       0.92077846 </v>
   <v>       0.16932891       0.73384562       0.50198376 </v>
   <v>       0.16960487       0.90017202       0.45680547 </v>
   <v>       0.16937182       0.73377473       0.59418635 </v>
   <v>       0.16963920       0.90026173       0.54626888 </v>
   <v>       0.16951408       0.73371829       0.68804462 </v>
   <v>       0.16955288       0.90039235       0.64194666 </v>
   <v>       0.16937472       0.73382745       0.78096004 </v>
   <v>       0.16954394       0.90031390       0.73485674 </v>
   <v>       0.16969422       0.73357909       0.87661656 </v>
   <v>       0.16952106       0.90031367       0.82869405 </v>
   <v>       0.16926373       0.73415978       0.96615047 </v>
   <v>       0.16933663       0.90053112       0.92090651 </v>
   <v>       0.83679679       0.40122518       0.50211486 </v>
   <v>       0.83543733       0.56788755       0.45680411 </v>
   <v>       0.83810157       0.40048914       0.59449804 </v>
   <v>       0.83451671       0.56916561       0.54687764 </v>
   <v>       0.83587174       0.40196280       0.68776409 </v>
   <v>       0.83555053       0.56820165       0.64133938 </v>
   <v>       0.83571746       0.40142956       0.78155683 </v>
   <v>       0.83591318       0.56860118       0.73513310 </v>
   <v>       0.83470817       0.40247874       0.87600323 </v>
   <v>       0.83805456       0.56725971       0.82839560 </v>
   <v>       0.83532786       0.40131096       0.96611389 </v>
   <v>       0.83664669       0.56803357       0.92078036 </v>
   <v>       0.50238259       0.73272866       0.50211855 </v>
   <v>       0.50375490       0.89932406       0.45680890 </v>
   <v>       0.50089091       0.73349146       0.59453796 </v>
   <v>       0.50412294       0.89836693       0.54686559 </v>
   <v>       0.50293761       0.73211228       0.68774677 </v>
   <v>       0.50324223       0.89935770       0.64136649 </v>
   <v>       0.50334208       0.73269569       0.78159077 </v>
   <v>       0.50289894       0.89879061       0.73513609 </v>
   <v>       0.50430030       0.73164221       0.87600244 </v>
   <v>       0.50096586       0.90020825       0.82835819 </v>
   <v>       0.50348825       0.73283107       0.96608999 </v>
   <v>       0.50242147       0.89937058       0.92075160 </v>
   <v>       0.83651098       0.73467253       0.50214102 </v>
   <v>       0.83522434       0.90127822       0.45683152 </v>
   <v>       0.83800774       0.73393016       0.59450137 </v>
   <v>       0.83457333       0.90247481       0.54688647 </v>
   <v>       0.83586650       0.73528520       0.68778418 </v>
   <v>       0.83574657       0.90136037       0.64131563 </v>
   <v>       0.83575026       0.73478302       0.78155839 </v>
   <v>       0.83592494       0.90192115       0.73513690 </v>
   <v>       0.83467779       0.73583225       0.87600866 </v>
   <v>       0.83811792       0.90055388       0.82839546 </v>
   <v>       0.83530692       0.73473161       0.96607735 </v>
   <v>       0.83659724       0.90134250       0.92074851 </v>
   <v>       0.40284868       0.05350927       0.03486004 </v>
   <v>       0.40282178       0.05352422       0.13645976 </v>
   <v>       0.40284348       0.05352092       0.23832320 </v>
   <v>       0.40284785       0.05351046       0.34017563 </v>
   <v>       0.40285067       0.30350838       0.03487753 </v>
   <v>       0.40282292       0.30352333       0.13647287 </v>
   <v>       0.40284986       0.30350902       0.23833708 </v>
   <v>       0.40284949       0.30350888       0.34022136 </v>
   <v>       0.40284876       0.55350918       0.03486014 </v>
   <v>       0.40282319       0.55352254       0.13645946 </v>
   <v>       0.40284827       0.55350774       0.23832255 </v>
   <v>       0.40284874       0.55350975       0.34017543 </v>
   <v>       0.40285054       0.80350850       0.03487742 </v>
   <v>       0.40282180       0.80352351       0.13647188 </v>
   <v>       0.40284386       0.80352071       0.23833646 </v>
   <v>       0.40284767       0.80351107       0.34022164 </v>
   <v>       0.90284869       0.05350927       0.03486003 </v>
   <v>       0.90282177       0.05352422       0.13645976 </v>
   <v>       0.90284347       0.05352092       0.23832319 </v>
   <v>       0.90284784       0.05351046       0.34017562 </v>
   <v>       0.90285067       0.30350838       0.03487752 </v>
   <v>       0.90282292       0.30352332       0.13647285 </v>
   <v>       0.90284986       0.30350902       0.23833708 </v>
   <v>       0.90284948       0.30350888       0.34022137 </v>
   <v>       0.90284877       0.55350917       0.03486013 </v>
   <v>       0.90282318       0.55352254       0.13645945 </v>
   <v>       0.90284827       0.55350774       0.23832255 </v>
   <v>       0.90284875       0.55350974       0.34017544 </v>
   <v>       0.90285053       0.80350850       0.03487742 </v>
   <v>       0.90282180       0.80352350       0.13647188 </v>
   <v>       0.90284386       0.80352071       0.23833646 </v>
   <v>       0.90284767       0.80351107       0.34022165 </v>
  </varray>
 </structure>
</modeling>
