unknown system                          
           1
    -8.907327    8.907327    0.000000
   -17.814655    0.000000    0.000000
     0.000000    0.000000   44.330709
   Cl   Na   O 
    32   204    32
Direct configuration=     1
   0.15284772  0.05351036  0.08469459
   0.15284652  0.05351208  0.18738864
   0.15284543  0.05351245  0.28917208
   0.15284798  0.05351047  0.38979769
   0.15284775  0.30351072  0.08471822
   0.15284747  0.30351212  0.18738088
   0.15285008  0.30351096  0.28914073
   0.15284815  0.30351038  0.38984689
   0.15284786  0.55351012  0.08469460
   0.15284974  0.55351108  0.18738805
   0.15284940  0.55351193  0.28917263
   0.15284788  0.55351070  0.38979778
   0.15284781  0.80351055  0.08471817
   0.15284474  0.80351248  0.18738015
   0.15284693  0.80351188  0.28914133
   0.15284763  0.80351103  0.38984690
   0.65284772  0.05351036  0.08469459
   0.65284652  0.05351208  0.18738865
   0.65284543  0.05351245  0.28917209
   0.65284798  0.05351047  0.38979769
   0.65284775  0.30351072  0.08471822
   0.65284746  0.30351212  0.18738088
   0.65285007  0.30351095  0.28914074
   0.65284813  0.30351038  0.38984688
   0.65284786  0.55351012  0.08469460
   0.65284974  0.55351108  0.18738805
   0.65284939  0.55351194  0.28917264
   0.65284788  0.55351070  0.38979776
   0.65284781  0.80351055  0.08471817
   0.65284474  0.80351248  0.18738014
   0.65284693  0.80351188  0.28914133
   0.65284765  0.80351103  0.38984689
   0.40284855  0.05350907  0.08544990
   0.15264987  0.17857688  0.03384518
   0.40284808  0.05351090  0.18742341
   0.15282029  0.17972408  0.13645686
   0.40284852  0.05350926  0.28920990
   0.15262545  0.17837590  0.23835750
   0.40285012  0.05350844  0.39016408
   0.15277608  0.17777044  0.34026703
   0.40304201  0.17837869  0.03383663
   0.40284974  0.30350828  0.08549788
   0.15305427  0.42843836  0.03384517
   0.40540709  0.17718773  0.13631647
   0.40284583  0.30351908  0.18739780
   0.15284054  0.42732292  0.13645684
   0.40249730  0.17860026  0.23834786
   0.40284831  0.30350903  0.28926139
   0.15306863  0.42865520  0.23835741
   0.40116663  0.17935247  0.34022735
   0.40284951  0.30350894  0.39032152
   0.15292232  0.42924975  0.34026685
   0.40264864  0.42866250  0.03384190
   0.40284882  0.55350865  0.08545021
   0.15264994  0.67857687  0.03384520
   0.40027996  0.42983885  0.13631565
   0.40284669  0.55350971  0.18742385
   0.15282125  0.67972379  0.13645700
   0.40320817  0.42842527  0.23834888
   0.40283558  0.55351239  0.28920780
   0.15262453  0.67837658  0.23835723
   0.40453116  0.42766586  0.34022659
   0.40284982  0.55350885  0.39016445
   0.15277568  0.67777060  0.34026686
   0.40304198  0.67837865  0.03383664
   0.40284996  0.80350794  0.08549755
   0.15305437  0.92843829  0.03384514
   0.40540802  0.67718543  0.13631647
   0.40284568  0.80351057  0.18739722
   0.15283943  0.92732325  0.13645633
   0.40249729  0.67860044  0.23834788
   0.40284962  0.80351021  0.28926072
   0.15306969  0.92865292  0.23835772
   0.40116578  0.67935390  0.34022700
   0.40284928  0.80350929  0.39032106
   0.15292270  0.92924917  0.34026653
   0.40264872  0.92866241  0.03384188
   0.40028078  0.92983869  0.13631573
   0.40320681  0.92841588  0.23834502
   0.40453201  0.92766548  0.34022657
   0.90284852  0.05350908  0.08544989
   0.65264985  0.17857689  0.03384518
   0.90284806  0.05351091  0.18742341
   0.65282029  0.17972410  0.13645686
   0.90284841  0.05350928  0.28920990
   0.65262544  0.17837590  0.23835749
   0.90285028  0.05350834  0.39016407
   0.65277608  0.17777044  0.34026705
   0.90304201  0.17837868  0.03383659
   0.90284973  0.30350827  0.08549786
   0.65305424  0.42843837  0.03384514
   0.90540711  0.17718771  0.13631646
   0.90284585  0.30351906  0.18739779
   0.65284056  0.42732290  0.13645682
   0.90249732  0.17860024  0.23834787
   0.90284825  0.30350906  0.28926140
   0.65306865  0.42865519  0.23835741
   0.90116649  0.17935253  0.34022734
   0.90284965  0.30350883  0.39032153
   0.65292231  0.42924977  0.34026690
   0.90264867  0.42866248  0.03384186
   0.90284880  0.55350865  0.08545020
   0.65264995  0.67857687  0.03384519
   0.90027996  0.42983884  0.13631562
   0.90284663  0.55350972  0.18742385
   0.65282125  0.67972381  0.13645699
   0.90320819  0.42842526  0.23834888
   0.90283557  0.55351241  0.28920780
   0.65262453  0.67837657  0.23835723
   0.90453103  0.42766593  0.34022661
   0.90285004  0.55350876  0.39016445
   0.65277568  0.67777056  0.34026687
   0.90304202  0.67837863  0.03383661
   0.90284993  0.80350794  0.08549754
   0.65305435  0.92843830  0.03384513
   0.90540798  0.67718544  0.13631647
   0.90284568  0.80351056  0.18739723
   0.65283944  0.92732322  0.13645633
   0.90249730  0.67860043  0.23834789
   0.90284958  0.80351022  0.28926074
   0.65306970  0.92865292  0.23835773
   0.90116562  0.67935398  0.34022702
   0.90284949  0.80350918  0.39032108
   0.65292271  0.92924917  0.34026659
   0.90264872  0.92866241  0.03384186
   0.90028077  0.92983870  0.13631572
   0.90320683  0.92841587  0.23834501
   0.90453189  0.92766554  0.34022658
   0.16946254  0.06701966  0.50199610
   0.16986781  0.23320294  0.45674011
   0.16943331  0.06710608  0.59419062
   0.16958320  0.23360491  0.54629070
   0.16945235  0.06706374  0.68804972
   0.16941144  0.23378763  0.64196413
   0.16941167  0.06699651  0.78093054
   0.16951626  0.23368146  0.73485510
   0.16960188  0.06693346  0.87662644
   0.16945761  0.23363852  0.82872385
   0.16924332  0.06752149  0.96614694
   0.16946712  0.23374939  0.92094259
   0.50238900  0.06606728  0.50213790
   0.50344374  0.23288222  0.45682916
   0.50087630  0.06686609  0.59452750
   0.50433857  0.23160937  0.54687660
   0.50301808  0.06542182  0.68772244
   0.50327308  0.23266313  0.64134737
   0.50334352  0.06599824  0.78156537
   0.50292150  0.23211641  0.73513621
   0.50428044  0.06500453  0.87601682
   0.50079073  0.23366168  0.82838474
   0.50379592  0.06596105  0.96608045
   0.50233400  0.23270471  0.92077831
   0.16945483  0.40028243  0.50192227
   0.16953540  0.56682366  0.45681756
   0.16948080  0.40035394  0.59417929
   0.16939625  0.56708928  0.54625969
   0.16954329  0.40033554  0.68803849
   0.16935699  0.56718096  0.64193211
   0.16937596  0.40040268  0.78097716
   0.16956786  0.56703498  0.73484279
   0.16944697  0.40039147  0.87662877
   0.16958999  0.56697386  0.82870155
   0.16945256  0.40049042  0.96616341
   0.16942715  0.56711173  0.92092624
   0.83653842  0.06802276  0.50216078
   0.83523760  0.23465328  0.45681935
   0.83821068  0.06710477  0.59452572
   0.83446696  0.23584530  0.54688467
   0.83584490  0.06860011  0.68777697
   0.83567434  0.23474065  0.64135432
   0.83570210  0.06803104  0.78153828
   0.83588685  0.23527095  0.73513702
   0.83464598  0.06921303  0.87603071
   0.83804448  0.23384905  0.82838270
   0.83526411  0.06806014  0.96604834
   0.83647745  0.23483561  0.92075823
   0.50232126  0.39942887  0.50212815
   0.50370696  0.56601680  0.45682548
   0.50085714  0.40019247  0.59451688
   0.50414486  0.56504001  0.54684210
   0.50293401  0.39879350  0.68772709
   0.50324739  0.56599330  0.64135170
   0.50317297  0.39936174  0.78155928
   0.50291051  0.56544977  0.73514346
   0.50436495  0.39831002  0.87601624
   0.50081701  0.56693472  0.82836534
   0.50346349  0.39950946  0.96608510
   0.50230414  0.56618648  0.92077846
   0.16932891  0.73384562  0.50198376
   0.16960487  0.90017202  0.45680547
   0.16937182  0.73377473  0.59418635
   0.16963920  0.90026173  0.54626888
   0.16951408  0.73371829  0.68804462
   0.16955288  0.90039235  0.64194666
   0.16937472  0.73382745  0.78096004
   0.16954394  0.90031390  0.73485674
   0.16969422  0.73357909  0.87661656
   0.16952106  0.90031367  0.82869405
   0.16926373  0.73415978  0.96615047
   0.16933663  0.90053112  0.92090651
   0.83679679  0.40122518  0.50211486
   0.83543733  0.56788755  0.45680411
   0.83810157  0.40048914  0.59449804
   0.83451671  0.56916561  0.54687764
   0.83587174  0.40196280  0.68776409
   0.83555053  0.56820165  0.64133938
   0.83571746  0.40142956  0.78155683
   0.83591318  0.56860118  0.73513310
   0.83470817  0.40247874  0.87600323
   0.83805456  0.56725971  0.82839560
   0.83532786  0.40131096  0.96611389
   0.83664669  0.56803357  0.92078036
   0.50238259  0.73272866  0.50211855
   0.50375490  0.89932406  0.45680890
   0.50089091  0.73349146  0.59453796
   0.50412294  0.89836693  0.54686559
   0.50293761  0.73211228  0.68774677
   0.50324223  0.89935770  0.64136649
   0.50334208  0.73269569  0.78159077
   0.50289894  0.89879061  0.73513609
   0.50430030  0.73164221  0.87600244
   0.50096586  0.90020825  0.82835819
   0.50348825  0.73283107  0.96608999
   0.50242147  0.89937058  0.92075160
   0.83651098  0.73467253  0.50214102
   0.83522434  0.90127822  0.45683152
   0.83800774  0.73393016  0.59450137
   0.83457333  0.90247481  0.54688647
   0.83586650  0.73528520  0.68778418
   0.83574657  0.90136037  0.64131563
   0.83575026  0.73478302  0.78155839
   0.83592494  0.90192115  0.73513690
   0.83467779  0.73583225  0.87600866
   0.83811792  0.90055388  0.82839546
   0.83530692  0.73473161  0.96607735
   0.83659724  0.90134250  0.92074851
   0.40284868  0.05350927  0.03486004
   0.40282178  0.05352422  0.13645976
   0.40284348  0.05352092  0.23832320
   0.40284785  0.05351046  0.34017563
   0.40285067  0.30350838  0.03487753
   0.40282292  0.30352333  0.13647287
   0.40284986  0.30350902  0.23833708
   0.40284949  0.30350888  0.34022136
   0.40284876  0.55350918  0.03486014
   0.40282319  0.55352254  0.13645946
   0.40284827  0.55350774  0.23832255
   0.40284874  0.55350975  0.34017543
   0.40285054  0.80350850  0.03487742
   0.40282180  0.80352351  0.13647188
   0.40284386  0.80352071  0.23833646
   0.40284767  0.80351107  0.34022164
   0.90284869  0.05350927  0.03486003
   0.90282177  0.05352422  0.13645976
   0.90284347  0.05352092  0.23832319
   0.90284784  0.05351046  0.34017562
   0.90285067  0.30350838  0.03487752
   0.90282292  0.30352332  0.13647285
   0.90284986  0.30350902  0.23833708
   0.90284948  0.30350888  0.34022137
   0.90284877  0.55350917  0.03486013
   0.90282318  0.55352254  0.13645945
   0.90284827  0.55350774  0.23832255
   0.90284875  0.55350974  0.34017544
   0.90285053  0.80350850  0.03487742
   0.90282180  0.80352350  0.13647188
   0.90284386  0.80352071  0.23833646
   0.90284767  0.80351107  0.34022165
