       N       E                     dE             d eps       ncg     rms          rms(c)
DAV:   1     0.499568341307E+03    0.49957E+03   -0.19396E+04   296   0.825E+02
DAV:   2     0.246557409739E+02   -0.47491E+03   -0.45086E+03   368   0.213E+02
DAV:   3    -0.882798817374E+02   -0.11294E+03   -0.11176E+03   400   0.111E+02
DAV:   4    -0.920547774395E+02   -0.37749E+01   -0.37617E+01   352   0.254E+01
DAV:   5    -0.921673006688E+02   -0.11252E+00   -0.11246E+00   360   0.431E+00    0.211E+01
RMM:   6    -0.728606831098E+02    0.19307E+02   -0.61056E+01   341   0.217E+01    0.856E+00
RMM:   7    -0.724705155697E+02    0.39017E+00   -0.60186E+00   374   0.622E+00    0.572E+00
RMM:   8    -0.717972853300E+02    0.67323E+00   -0.27261E+00   372   0.541E+00    0.136E+00
RMM:   9    -0.717897398829E+02    0.75454E-02   -0.71546E-01   405   0.228E+00    0.697E-01
RMM:  10    -0.717953674617E+02   -0.56276E-02   -0.92494E-02   384   0.941E-01    0.441E-01
RMM:  11    -0.717927413636E+02    0.26261E-02   -0.30768E-02   369   0.634E-01    0.181E-01
RMM:  12    -0.717906979928E+02    0.20434E-02   -0.13395E-02   397   0.289E-01    0.115E-01
RMM:  13    -0.717896119865E+02    0.10860E-02   -0.41576E-03   378   0.184E-01    0.616E-02
RMM:  14    -0.717895962944E+02    0.15692E-04   -0.24701E-03   395   0.118E-01    0.435E-02
RMM:  15    -0.717901560388E+02   -0.55974E-03   -0.81759E-04   395   0.756E-02    0.266E-02
RMM:  16    -0.717908467658E+02   -0.69073E-03   -0.31164E-04   383   0.485E-02    0.172E-02
RMM:  17    -0.717916523068E+02   -0.80554E-03   -0.22074E-04   409   0.304E-02    0.172E-02
RMM:  18    -0.717921418885E+02   -0.48958E-03   -0.60420E-05   379   0.213E-02    0.740E-03
RMM:  19    -0.717923871862E+02   -0.24530E-03   -0.29435E-05   384   0.125E-02    0.586E-03
RMM:  20    -0.717924249004E+02   -0.37714E-04   -0.87567E-06   392   0.692E-03    0.301E-03
RMM:  21    -0.717924417632E+02   -0.16863E-04   -0.29507E-06   395   0.412E-03    0.135E-03
RMM:  22    -0.717924473968E+02   -0.56336E-05   -0.92903E-07   394   0.229E-03    0.706E-04
RMM:  23    -0.717924479991E+02   -0.60235E-06   -0.24827E-07   379   0.114E-03    0.352E-04
RMM:  24    -0.717924482757E+02   -0.27660E-06   -0.76020E-08   327   0.667E-04    0.269E-04
RMM:  25    -0.717924483027E+02   -0.26954E-07   -0.24965E-08   301   0.408E-04    0.935E-05
RMM:  26    -0.717924483053E+02   -0.26212E-08   -0.53264E-09   276   0.234E-04
   1 F= -.71792448E+02 E0= -.71792448E+02  d E =-.150284E-10
