unknown system                          
           1
     0.000000    4.457378    0.000000
    -4.457378    0.000000    0.000000
     0.000000    0.000000   27.600824
   Na   O    Cl
    12     4     4
Direct configuration=     1
   0.50000017  0.00000010  0.21738481
   0.50000017  0.50000017  0.29813200
   0.00000010  0.50000017  0.21738481
   0.50000017  0.00000010  0.37887921
   0.50000017  0.50000017  0.45962639
   0.00000010  0.50000017  0.37887921
   0.50000017  0.00000010  0.54037361
   0.50000017  0.50000017  0.62112079
   0.00000010  0.50000017  0.54037361
   0.50000017  0.00000010  0.70186800
   0.50000017  0.50000017  0.78261519
   0.00000010  0.50000017  0.70186800
   0.50000017  0.50000017  0.21738481
   0.50000017  0.50000017  0.37887921
   0.50000017  0.50000017  0.54037361
   0.50000017  0.50000017  0.70186800
   0.00000010  0.00000010  0.29813200
   0.00000010  0.00000010  0.45962639
   0.00000010  0.00000010  0.62112079
   0.00000010  0.00000010  0.78261519
