   2   2   0   0
  0.3632429E+02  0.4172622E-09  0.4172622E-09  0.4172622E-09  0.5000000E-15
  1.000000000000000E-004
  CAR 
 unknown system                          
     13.34843410     -3.69509233  301      0.47355095      1.00000000
     -3.695  0.0000E+00  0.0000E+00
     -3.638  0.0000E+00  0.0000E+00
     -3.581  0.0000E+00  0.0000E+00
     -3.525  0.0000E+00  0.0000E+00
     -3.468  0.0000E+00  0.0000E+00
     -3.411  0.0000E+00  0.0000E+00
     -3.354  0.0000E+00  0.0000E+00
     -3.297  0.0000E+00  0.0000E+00
     -3.241  0.4160E-17  0.2364E-18
     -3.184  0.1648E-14  0.9387E-16
     -3.127  0.3458E-12  0.1974E-13
     -3.070  0.3854E-10  0.2209E-11
     -3.013  0.2288E-08  0.1322E-09
     -2.957  0.7255E-07  0.4254E-08
     -2.900  0.1233E-05  0.7429E-07
     -2.843  0.1126E-04  0.7142E-06
     -2.786  0.5552E-04  0.3868E-05
     -2.729  0.1480E-03  0.1228E-04
     -2.672  0.2139E-03  0.2443E-04
     -2.616  0.1677E-03  0.3396E-04
     -2.559  0.7128E-04  0.3801E-04
     -2.502  0.1640E-04  0.3894E-04
     -2.445  0.2092E-05  0.3906E-04
     -2.388  0.1533E-05  0.3914E-04
     -2.332  0.1868E-04  0.4021E-04
     -2.275  0.1345E-03  0.4785E-04
     -2.218  0.5228E-03  0.7755E-04
     -2.161  0.1101E-02  0.1401E-03
     -2.104  0.1256E-02  0.2114E-03
     -2.048  0.7779E-03  0.2556E-03
     -1.991  0.2610E-03  0.2705E-03
     -1.934  0.4737E-04  0.2732E-03
     -1.877  0.5166E-05  0.2735E-03
     -1.820  0.1022E-04  0.2740E-03
     -1.763  0.1003E-03  0.2797E-03
     -1.707  0.5430E-03  0.3106E-03
     -1.650  0.1591E-02  0.4009E-03
     -1.593  0.2524E-02  0.5444E-03
     -1.536  0.2173E-02  0.6678E-03
     -1.479  0.1015E-02  0.7255E-03
     -1.423  0.2565E-03  0.7400E-03
     -1.366  0.3508E-04  0.7420E-03
     -1.309  0.4444E-05  0.7423E-03
     -1.252  0.2510E-04  0.7437E-03
     -1.195  0.1798E-03  0.7539E-03
     -1.139  0.6983E-03  0.7936E-03
     -1.082  0.1469E-02  0.8770E-03
     -1.025  0.1675E-02  0.9722E-03
     -0.968  0.1036E-02  0.1031E-02
     -0.911  0.3472E-03  0.1051E-02
     -0.855  0.6293E-04  0.1054E-02
     -0.798  0.6586E-05  0.1055E-02
     -0.741  0.7758E-05  0.1055E-02
     -0.684  0.6785E-04  0.1059E-02
     -0.627  0.3340E-03  0.1078E-02
     -0.570  0.8893E-03  0.1128E-02
     -0.514  0.1284E-02  0.1201E-02
     -0.457  0.1005E-02  0.1259E-02
     -0.400  0.4267E-03  0.1283E-02
     -0.343  0.9804E-04  0.1288E-02
     -0.286  0.1286E-04  0.1289E-02
     -0.230  0.1503E-04  0.1290E-02
     -0.173  0.1546E-03  0.1299E-02
     -0.116  0.9057E-03  0.1350E-02
     -0.059  0.2869E-02  0.1513E-02
     -0.002  0.4925E-02  0.1793E-02
      0.054  0.4584E-02  0.2053E-02
      0.111  0.2314E-02  0.2185E-02
      0.168  0.6328E-03  0.2221E-02
      0.225  0.9385E-04  0.2226E-02
      0.282  0.1619E-04  0.2227E-02
      0.339  0.1065E-03  0.2233E-02
      0.395  0.6937E-03  0.2273E-02
      0.452  0.2448E-02  0.2412E-02
      0.509  0.4681E-02  0.2678E-02
      0.566  0.4853E-02  0.2953E-02
      0.623  0.2729E-02  0.3108E-02
      0.679  0.8315E-03  0.3156E-02
      0.736  0.1369E-03  0.3163E-02
      0.793  0.1215E-04  0.3164E-02
      0.850  0.5788E-06  0.3164E-02
      0.907  0.1477E-07  0.3164E-02
      0.963  0.3615E-09  0.3164E-02
      1.020  0.1004E-07  0.3164E-02
      1.077  0.3351E-06  0.3164E-02
      1.134  0.5995E-05  0.3164E-02
      1.191  0.5764E-04  0.3168E-02
      1.248  0.2989E-03  0.3185E-02
      1.304  0.8383E-03  0.3232E-02
      1.361  0.1274E-02  0.3305E-02
      1.418  0.1051E-02  0.3364E-02
      1.475  0.4697E-03  0.3391E-02
      1.532  0.1139E-03  0.3398E-02
      1.588  0.1974E-04  0.3399E-02
      1.645  0.6283E-04  0.3402E-02
      1.702  0.4258E-03  0.3426E-02
      1.759  0.1603E-02  0.3518E-02
      1.816  0.3305E-02  0.3705E-02
      1.872  0.3753E-02  0.3918E-02
      1.929  0.2459E-02  0.4058E-02
      1.986  0.1343E-02  0.4134E-02
      2.043  0.1278E-02  0.4207E-02
      2.100  0.1263E-02  0.4279E-02
      2.157  0.8545E-03  0.4327E-02
      2.213  0.9924E-03  0.4384E-02
      2.270  0.2622E-02  0.4533E-02
      2.327  0.4770E-02  0.4804E-02
      2.384  0.4776E-02  0.5075E-02
      2.441  0.2595E-02  0.5223E-02
      2.497  0.7640E-03  0.5266E-02
      2.554  0.1226E-03  0.5273E-02
      2.611  0.2958E-04  0.5275E-02
      2.668  0.1907E-03  0.5285E-02
      2.725  0.1042E-02  0.5345E-02
      2.781  0.3180E-02  0.5525E-02
      2.838  0.5462E-02  0.5836E-02
      2.895  0.5317E-02  0.6138E-02
      2.952  0.2940E-02  0.6305E-02
      3.009  0.9216E-03  0.6357E-02
      3.066  0.1637E-03  0.6366E-02
      3.122  0.3200E-04  0.6368E-02
      3.179  0.1210E-03  0.6375E-02
      3.236  0.4867E-03  0.6403E-02
      3.293  0.1067E-02  0.6463E-02
      3.350  0.1269E-02  0.6535E-02
      3.406  0.8188E-03  0.6582E-02
      3.463  0.2862E-03  0.6598E-02
      3.520  0.5414E-04  0.6601E-02
      3.577  0.6346E-05  0.6602E-02
      3.634  0.1342E-04  0.6602E-02
      3.690  0.1116E-03  0.6609E-02
      3.747  0.5127E-03  0.6638E-02
      3.804  0.1274E-02  0.6710E-02
      3.861  0.1718E-02  0.6808E-02
      3.918  0.1272E-02  0.6880E-02
      3.974  0.6782E-03  0.6919E-02
      4.031  0.1120E-02  0.6982E-02
      4.088  0.3093E-02  0.7158E-02
      4.145  0.5229E-02  0.7455E-02
      4.202  0.5611E-02  0.7774E-02
      4.259  0.5448E-02  0.8083E-02
      4.315  0.5644E-02  0.8404E-02
      4.372  0.4320E-02  0.8649E-02
      4.429  0.1923E-02  0.8759E-02
      4.486  0.4696E-03  0.8785E-02
      4.543  0.6203E-04  0.8789E-02
      4.599  0.4412E-05  0.8789E-02
      4.656  0.1722E-06  0.8789E-02
      4.713  0.1308E-06  0.8789E-02
      4.770  0.2332E-05  0.8789E-02
      4.827  0.2464E-04  0.8791E-02
      4.883  0.1635E-03  0.8800E-02
      4.940  0.7454E-03  0.8842E-02
      4.997  0.2351E-02  0.8976E-02
      5.054  0.4738E-02  0.9245E-02
      5.111  0.5640E-02  0.9565E-02
      5.168  0.3808E-02  0.9782E-02
      5.224  0.1438E-02  0.9863E-02
      5.281  0.3068E-03  0.9881E-02
      5.338  0.6750E-04  0.9885E-02
      5.395  0.1621E-03  0.9894E-02
      5.452  0.4445E-03  0.9919E-02
      5.508  0.7326E-03  0.9961E-02
      5.565  0.9336E-03  0.1001E-01
      5.622  0.1321E-02  0.1009E-01
      5.679  0.1931E-02  0.1020E-01
      5.736  0.2597E-02  0.1035E-01
      5.792  0.3012E-02  0.1052E-01
      5.849  0.2782E-02  0.1068E-01
      5.906  0.2635E-02  0.1082E-01
      5.963  0.2780E-02  0.1098E-01
      6.020  0.2129E-02  0.1110E-01
      6.077  0.9388E-03  0.1116E-01
      6.133  0.2270E-03  0.1117E-01
      6.190  0.4079E-04  0.1117E-01
      6.247  0.1121E-03  0.1118E-01
      6.304  0.5790E-03  0.1121E-01
      6.361  0.1650E-02  0.1131E-01
      6.417  0.2570E-02  0.1145E-01
      6.474  0.2347E-02  0.1158E-01
      6.531  0.1890E-02  0.1169E-01
      6.588  0.2370E-02  0.1183E-01
      6.645  0.2943E-02  0.1199E-01
      6.701  0.3109E-02  0.1217E-01
      6.758  0.3709E-02  0.1238E-01
      6.815  0.4235E-02  0.1262E-01
      6.872  0.3999E-02  0.1285E-01
      6.929  0.3311E-02  0.1304E-01
      6.986  0.2281E-02  0.1317E-01
      7.042  0.1807E-02  0.1327E-01
      7.099  0.2437E-02  0.1341E-01
      7.156  0.2964E-02  0.1358E-01
      7.213  0.2893E-02  0.1374E-01
      7.270  0.3139E-02  0.1392E-01
      7.326  0.3491E-02  0.1412E-01
      7.383  0.2945E-02  0.1428E-01
      7.440  0.1967E-02  0.1440E-01
      7.497  0.1549E-02  0.1448E-01
      7.554  0.1286E-02  0.1456E-01
      7.610  0.8465E-03  0.1461E-01
      7.667  0.1135E-02  0.1467E-01
      7.724  0.2942E-02  0.1484E-01
      7.781  0.4946E-02  0.1512E-01
      7.838  0.4557E-02  0.1538E-01
      7.895  0.2279E-02  0.1551E-01
      7.951  0.6297E-03  0.1554E-01
      8.008  0.2008E-03  0.1555E-01
      8.065  0.5168E-03  0.1558E-01
      8.122  0.1273E-02  0.1566E-01
      8.179  0.1735E-02  0.1575E-01
      8.235  0.1334E-02  0.1583E-01
      8.292  0.6722E-03  0.1587E-01
      8.349  0.3207E-03  0.1589E-01
      8.406  0.1559E-03  0.1589E-01
      8.463  0.5732E-04  0.1590E-01
      8.519  0.7176E-04  0.1590E-01
      8.576  0.4688E-03  0.1593E-01
      8.633  0.1938E-02  0.1604E-01
      8.690  0.4490E-02  0.1629E-01
      8.747  0.6355E-02  0.1665E-01
      8.803  0.6932E-02  0.1705E-01
      8.860  0.7120E-02  0.1745E-01
      8.917  0.5799E-02  0.1778E-01
      8.974  0.2956E-02  0.1795E-01
      9.031  0.8561E-03  0.1800E-01
      9.088  0.1366E-03  0.1801E-01
      9.144  0.1186E-04  0.1801E-01
      9.201  0.5557E-06  0.1801E-01
      9.258  0.1539E-07  0.1801E-01
      9.315  0.6991E-07  0.1801E-01
      9.372  0.1883E-05  0.1801E-01
      9.428  0.2794E-04  0.1801E-01
      9.485  0.2291E-03  0.1802E-01
      9.542  0.1045E-02  0.1808E-01
      9.599  0.2658E-02  0.1823E-01
      9.656  0.3788E-02  0.1845E-01
      9.712  0.3140E-02  0.1863E-01
      9.769  0.2057E-02  0.1874E-01
      9.826  0.2204E-02  0.1887E-01
      9.883  0.2617E-02  0.1902E-01
      9.940  0.1909E-02  0.1913E-01
      9.997  0.7647E-03  0.1917E-01
     10.053  0.1690E-03  0.1918E-01
     10.110  0.5961E-04  0.1918E-01
     10.167  0.2848E-03  0.1920E-01
     10.224  0.1081E-02  0.1926E-01
     10.281  0.2231E-02  0.1939E-01
     10.337  0.2498E-02  0.1953E-01
     10.394  0.1517E-02  0.1961E-01
     10.451  0.4991E-03  0.1964E-01
     10.508  0.8897E-04  0.1965E-01
     10.565  0.1256E-04  0.1965E-01
     10.621  0.4607E-04  0.1965E-01
     10.678  0.2771E-03  0.1967E-01
     10.735  0.9097E-03  0.1972E-01
     10.792  0.1618E-02  0.1981E-01
     10.849  0.1560E-02  0.1990E-01
     10.906  0.8162E-03  0.1995E-01
     10.962  0.2312E-03  0.1996E-01
     11.019  0.3540E-04  0.1996E-01
     11.076  0.2919E-05  0.1996E-01
     11.133  0.1292E-06  0.1996E-01
     11.190  0.3060E-08  0.1996E-01
     11.246  0.3867E-10  0.1996E-01
     11.303  0.2599E-12  0.1996E-01
     11.360  0.9276E-15  0.1996E-01
     11.417  0.1832E-17  0.1996E-01
     11.474  0.0000E+00  0.1996E-01
     11.530  0.0000E+00  0.1996E-01
     11.587  0.0000E+00  0.1996E-01
     11.644  0.0000E+00  0.1996E-01
     11.701  0.0000E+00  0.1996E-01
     11.758  0.3817E-19  0.1996E-01
     11.815  0.1485E-16  0.1996E-01
     11.871  0.5164E-14  0.1996E-01
     11.928  0.9519E-12  0.1996E-01
     11.985  0.9329E-10  0.1996E-01
     12.042  0.4872E-08  0.1996E-01
     12.099  0.1360E-06  0.1996E-01
     12.155  0.2036E-05  0.1996E-01
     12.212  0.1640E-04  0.1996E-01
     12.269  0.7128E-04  0.1997E-01
     12.326  0.1677E-03  0.1998E-01
     12.383  0.2139E-03  0.1999E-01
     12.439  0.1480E-03  0.2000E-01
     12.496  0.5552E-04  0.2000E-01
     12.553  0.1126E-04  0.2000E-01
     12.610  0.1233E-05  0.2000E-01
     12.667  0.7255E-07  0.2000E-01
     12.724  0.2288E-08  0.2000E-01
     12.780  0.3854E-10  0.2000E-01
     12.837  0.3458E-12  0.2000E-01
     12.894  0.1648E-14  0.2000E-01
     12.951  0.4122E-17  0.2000E-01
     13.008  0.0000E+00  0.2000E-01
     13.064  0.0000E+00  0.2000E-01
     13.121  0.0000E+00  0.2000E-01
     13.178  0.0000E+00  0.2000E-01
     13.235  0.0000E+00  0.2000E-01
     13.292  0.0000E+00  0.2000E-01
     13.348  0.0000E+00  0.2000E-01
