    2    2  800    1
  0.3632429E+02  0.4172622E-09  0.4172622E-09  0.4172622E-09  0.5000000E-15
  1.000000000000000E-004
  CAR 
 unknown system                          
      2     10      8
 
  0.0000000E+00  0.0000000E+00  0.0000000E+00  0.1562500E-01
    1       -2.695092   1.000000
    2        5.114562   0.000000
    3        5.114562   0.000000
    4        5.487848   0.000000
    5        5.487848   0.000000
    6        5.487848   0.000000
    7        8.312100   0.000000
    8       12.348434   0.000000
 
  0.2500000E+00  0.0000000E+00  0.0000000E+00  0.9375000E-01
    1       -2.148876   1.000000
    2        2.051075   0.000000
    3        5.646814   0.000000
    4        5.944832   0.000000
    5        5.944832   0.000000
    6        7.500140   0.000000
    7        9.643369   0.000000
    8        9.643372   0.000000
 
  0.5000000E+00  0.0000000E+00  0.0000000E+00  0.4687500E-01
    1       -0.536360   1.000000
    2       -0.536360   1.000000
    3        7.242889   0.000000
    4        7.242889   0.000000
    5        7.325110   0.000000
    6        7.325110   0.000000
    7        7.325110   0.000000
    8        7.325110   0.000000
 
  0.2500000E+00  0.2500000E+00  0.0000000E+00  0.1875000E+00
    1       -1.606965   1.000000
    2        2.326267   0.000000
    3        2.858746   0.000000
    4        6.400836   0.000000
    5        6.606720   0.000000
    6        7.111991   0.000000
    7        9.854951   0.000000
    8       10.291082   0.000000
 
  0.5000000E+00  0.2500000E+00  0.0000000E+00  0.1875000E+00
    1       -0.008977   1.000000
    2       -0.008977   1.000000
    3        4.133887   0.000000
    4        4.133887   0.000000
    5        7.773324   0.000000
    6        7.773324   0.000000
    7        8.707007   0.000000
    8        8.707007   0.000000
 
  0.5000000E+00  0.5000000E+00  0.0000000E+00  0.4687500E-01
    1        1.343230   0.000000
    2        1.343230   0.000000
    3        1.813980   0.000000
    4        1.813980   0.000000
    5        8.812412   0.000000
    6        8.812412   0.000000
    7        9.611164   0.000000
    8        9.611166   0.000000
 
  0.2500000E+00  0.2500000E+00  0.2500000E+00  0.1250000E+00
    1       -1.069553   1.000000
    2        2.818537   0.000000
    3        2.818537   0.000000
    4        3.831745   0.000000
    5        6.770706   0.000000
    6        6.770706   0.000000
    7        8.149728   0.000000
    8       10.788550   0.000000
 
  0.5000000E+00  0.2500000E+00  0.2500000E+00  0.1875000E+00
    1        0.512337   0.291667
    2        0.512337   0.291667
    3        4.298488   0.000000
    4        4.298488   0.000000
    5        5.072147   0.000000
    6        5.072147   0.000000
    7        8.862808   0.000000
    8        8.862808   0.000000
 
  0.5000000E+00  0.5000000E+00  0.2500000E+00  0.9375000E-01
    1        1.833616   0.000000
    2        1.833616   0.000000
    3        2.327986   0.000000
    4        2.327986   0.000000
    5        5.774979   0.000000
    6        5.774979   0.000000
    7        6.899900   0.000000
    8        6.899900   0.000000
 
  0.5000000E+00  0.5000000E+00  0.5000000E+00  0.1562500E-01
    1        3.308850   0.000000
    2        3.308850   0.000000
    3        3.308850   0.000000
    4        3.308850   0.000000
    5        3.308850   0.000000
    6        3.308850   0.000000
    7        4.977291   0.000000
    8        4.977291   0.000000
