unknown system                          
           1
     4.172622    0.000000    0.000000
     0.000000    4.172622    0.000000
     0.000000    0.000000    4.172622
   Na
     2
Direct configuration=     1
   0.00000000  0.00000000  0.00000000
   0.50000000  0.50000000  0.50000000
unknown system                          
           1
     4.178330    0.000000   -0.000000
    -0.000000    4.178330    0.000000
     0.000000    0.000000    4.178330
   Na
     2
Direct configuration=     2
  -0.00000000 -0.00000000 -0.00000000
   0.50000000  0.50000000  0.50000000
unknown system                          
           1
     4.195452    0.000000   -0.000000
    -0.000000    4.195452    0.000000
     0.000000    0.000000    4.195452
   Na
     2
Direct configuration=     3
  -0.00000000 -0.00000000 -0.00000000
   0.50000000  0.50000000  0.50000000
