 268 268   0   0
  0.2503691E+02  0.1259686E-08  0.1781465E-08  0.4228542E-08  0.5000000E-15
  1.000000000000000E-004
  CAR 
 unknown system                          
      7.06757160    -16.41364387  301      1.79642865      1.00000000
    -16.414  0.0000E+00  0.0000E+00
    -16.335  0.0000E+00  0.0000E+00
    -16.257  0.0000E+00  0.0000E+00
    -16.179  0.0000E+00  0.0000E+00
    -16.101  0.0000E+00  0.0000E+00
    -16.022  0.0000E+00  0.0000E+00
    -15.944  0.0000E+00  0.0000E+00
    -15.866  0.2391E-11  0.1871E-12
    -15.787  0.5307E-08  0.4156E-09
    -15.709  0.3594E-05  0.2817E-06
    -15.631  0.7550E-03  0.5938E-04
    -15.553  0.5058E-01  0.4018E-02
    -15.474  0.1132E+01  0.9263E-01
    -15.396  0.9204E+01  0.8130E+00
    -15.318  0.3127E+02  0.3261E+01
    -15.240  0.5165E+02  0.7303E+01
    -15.161  0.4365E+02  0.1072E+02
    -15.083  0.2758E+02  0.1288E+02
    -15.005  0.5303E+02  0.1703E+02
    -14.927  0.1268E+03  0.2695E+02
    -14.848  0.2146E+03  0.4375E+02
    -14.770  0.2623E+03  0.6427E+02
    -14.692  0.2425E+03  0.8325E+02
    -14.613  0.2099E+03  0.9968E+02
    -14.535  0.1988E+03  0.1152E+03
    -14.457  0.1240E+03  0.1249E+03
    -14.379  0.3499E+02  0.1277E+03
    -14.300  0.3917E+01  0.1280E+03
    -14.222  0.1616E+00  0.1280E+03
    -14.144  0.2334E-02  0.1280E+03
    -14.066  0.1136E-04  0.1280E+03
    -13.987  0.1813E-07  0.1280E+03
    -13.909  0.9228E-11  0.1280E+03
    -13.831  0.1418E-14  0.1280E+03
    -13.752  0.0000E+00  0.1280E+03
    -13.674  0.0000E+00  0.1280E+03
    -13.596  0.0000E+00  0.1280E+03
    -13.518  0.0000E+00  0.1280E+03
    -13.439  0.0000E+00  0.1280E+03
    -13.361  0.0000E+00  0.1280E+03
    -13.283  0.0000E+00  0.1280E+03
    -13.205  0.0000E+00  0.1280E+03
    -13.126  0.0000E+00  0.1280E+03
    -13.048  0.0000E+00  0.1280E+03
    -12.970  0.0000E+00  0.1280E+03
    -12.891  0.0000E+00  0.1280E+03
    -12.813  0.0000E+00  0.1280E+03
    -12.735  0.0000E+00  0.1280E+03
    -12.657  0.0000E+00  0.1280E+03
    -12.578  0.0000E+00  0.1280E+03
    -12.500  0.0000E+00  0.1280E+03
    -12.422  0.0000E+00  0.1280E+03
    -12.344  0.0000E+00  0.1280E+03
    -12.265  0.0000E+00  0.1280E+03
    -12.187  0.0000E+00  0.1280E+03
    -12.109  0.0000E+00  0.1280E+03
    -12.030  0.0000E+00  0.1280E+03
    -11.952  0.0000E+00  0.1280E+03
    -11.874  0.0000E+00  0.1280E+03
    -11.796  0.0000E+00  0.1280E+03
    -11.717  0.0000E+00  0.1280E+03
    -11.639  0.0000E+00  0.1280E+03
    -11.561  0.0000E+00  0.1280E+03
    -11.483  0.0000E+00  0.1280E+03
    -11.404  0.0000E+00  0.1280E+03
    -11.326  0.0000E+00  0.1280E+03
    -11.248  0.0000E+00  0.1280E+03
    -11.170  0.0000E+00  0.1280E+03
    -11.091  0.0000E+00  0.1280E+03
    -11.013  0.0000E+00  0.1280E+03
    -10.935  0.0000E+00  0.1280E+03
    -10.856  0.0000E+00  0.1280E+03
    -10.778  0.0000E+00  0.1280E+03
    -10.700  0.0000E+00  0.1280E+03
    -10.622  0.0000E+00  0.1280E+03
    -10.543  0.0000E+00  0.1280E+03
    -10.465  0.0000E+00  0.1280E+03
    -10.387  0.0000E+00  0.1280E+03
    -10.309  0.0000E+00  0.1280E+03
    -10.230  0.0000E+00  0.1280E+03
    -10.152  0.0000E+00  0.1280E+03
    -10.074  0.0000E+00  0.1280E+03
     -9.995  0.0000E+00  0.1280E+03
     -9.917  0.0000E+00  0.1280E+03
     -9.839  0.0000E+00  0.1280E+03
     -9.761  0.0000E+00  0.1280E+03
     -9.682  0.0000E+00  0.1280E+03
     -9.604  0.0000E+00  0.1280E+03
     -9.526  0.0000E+00  0.1280E+03
     -9.448  0.0000E+00  0.1280E+03
     -9.369  0.0000E+00  0.1280E+03
     -9.291  0.0000E+00  0.1280E+03
     -9.213  0.0000E+00  0.1280E+03
     -9.134  0.0000E+00  0.1280E+03
     -9.056  0.0000E+00  0.1280E+03
     -8.978  0.0000E+00  0.1280E+03
     -8.900  0.0000E+00  0.1280E+03
     -8.821  0.0000E+00  0.1280E+03
     -8.743  0.0000E+00  0.1280E+03
     -8.665  0.0000E+00  0.1280E+03
     -8.587  0.0000E+00  0.1280E+03
     -8.508  0.0000E+00  0.1280E+03
     -8.430  0.0000E+00  0.1280E+03
     -8.352  0.0000E+00  0.1280E+03
     -8.273  0.0000E+00  0.1280E+03
     -8.195  0.0000E+00  0.1280E+03
     -8.117  0.0000E+00  0.1280E+03
     -8.039  0.0000E+00  0.1280E+03
     -7.960  0.0000E+00  0.1280E+03
     -7.882  0.0000E+00  0.1280E+03
     -7.804  0.0000E+00  0.1280E+03
     -7.726  0.0000E+00  0.1280E+03
     -7.647  0.0000E+00  0.1280E+03
     -7.569  0.0000E+00  0.1280E+03
     -7.491  0.0000E+00  0.1280E+03
     -7.413  0.0000E+00  0.1280E+03
     -7.334  0.0000E+00  0.1280E+03
     -7.256  0.0000E+00  0.1280E+03
     -7.178  0.0000E+00  0.1280E+03
     -7.099  0.0000E+00  0.1280E+03
     -7.021  0.0000E+00  0.1280E+03
     -6.943  0.0000E+00  0.1280E+03
     -6.865  0.0000E+00  0.1280E+03
     -6.786  0.0000E+00  0.1280E+03
     -6.708  0.0000E+00  0.1280E+03
     -6.630  0.0000E+00  0.1280E+03
     -6.552  0.0000E+00  0.1280E+03
     -6.473  0.0000E+00  0.1280E+03
     -6.395  0.0000E+00  0.1280E+03
     -6.317  0.0000E+00  0.1280E+03
     -6.238  0.0000E+00  0.1280E+03
     -6.160  0.0000E+00  0.1280E+03
     -6.082  0.0000E+00  0.1280E+03
     -6.004  0.0000E+00  0.1280E+03
     -5.925  0.0000E+00  0.1280E+03
     -5.847  0.0000E+00  0.1280E+03
     -5.769  0.0000E+00  0.1280E+03
     -5.691  0.0000E+00  0.1280E+03
     -5.612  0.0000E+00  0.1280E+03
     -5.534  0.0000E+00  0.1280E+03
     -5.456  0.0000E+00  0.1280E+03
     -5.377  0.0000E+00  0.1280E+03
     -5.299  0.0000E+00  0.1280E+03
     -5.221  0.0000E+00  0.1280E+03
     -5.143  0.0000E+00  0.1280E+03
     -5.064  0.0000E+00  0.1280E+03
     -4.986  0.0000E+00  0.1280E+03
     -4.908  0.0000E+00  0.1280E+03
     -4.830  0.0000E+00  0.1280E+03
     -4.751  0.5461E-12  0.1280E+03
     -4.673  0.1548E-08  0.1280E+03
     -4.595  0.1324E-05  0.1280E+03
     -4.516  0.3452E-03  0.1280E+03
     -4.438  0.2779E-01  0.1280E+03
     -4.360  0.7060E+00  0.1281E+03
     -4.282  0.5896E+01  0.1285E+03
     -4.203  0.1804E+02  0.1299E+03
     -4.125  0.2790E+02  0.1321E+03
     -4.047  0.3453E+02  0.1348E+03
     -3.969  0.4017E+02  0.1380E+03
     -3.890  0.6370E+02  0.1429E+03
     -3.812  0.1164E+03  0.1521E+03
     -3.734  0.1681E+03  0.1652E+03
     -3.656  0.1859E+03  0.1798E+03
     -3.577  0.1878E+03  0.1945E+03
     -3.499  0.2078E+03  0.2107E+03
     -3.421  0.2526E+03  0.2305E+03
     -3.342  0.2799E+03  0.2524E+03
     -3.264  0.2362E+03  0.2709E+03
     -3.186  0.1758E+03  0.2847E+03
     -3.108  0.1546E+03  0.2968E+03
     -3.029  0.1317E+03  0.3071E+03
     -2.951  0.9596E+02  0.3146E+03
     -2.873  0.5224E+02  0.3187E+03
     -2.795  0.1499E+02  0.3199E+03
     -2.716  0.1790E+01  0.3200E+03
     -2.638  0.7878E-01  0.3200E+03
     -2.560  0.1189E-02  0.3200E+03
     -2.481  0.5861E-05  0.3200E+03
     -2.403  0.9118E-08  0.3200E+03
     -2.325  0.4376E-11  0.3200E+03
     -2.247  0.0000E+00  0.3200E+03
     -2.168  0.0000E+00  0.3200E+03
     -2.090  0.0000E+00  0.3200E+03
     -2.012  0.0000E+00  0.3200E+03
     -1.934  0.1191E-12  0.3200E+03
     -1.855  0.3618E-09  0.3200E+03
     -1.777  0.3298E-06  0.3200E+03
     -1.699  0.9136E-04  0.3200E+03
     -1.620  0.7789E-02  0.3200E+03
     -1.542  0.2089E+00  0.3200E+03
     -1.464  0.1838E+01  0.3202E+03
     -1.386  0.5855E+01  0.3206E+03
     -1.307  0.8513E+01  0.3213E+03
     -1.229  0.8652E+01  0.3220E+03
     -1.151  0.1607E+02  0.3232E+03
     -1.073  0.4129E+02  0.3265E+03
     -0.994  0.7782E+02  0.3325E+03
     -0.916  0.1186E+03  0.3418E+03
     -0.838  0.1533E+03  0.3538E+03
     -0.760  0.2046E+03  0.3698E+03
     -0.681  0.2890E+03  0.3925E+03
     -0.603  0.3091E+03  0.4167E+03
     -0.525  0.2887E+03  0.4393E+03
     -0.446  0.3154E+03  0.4639E+03
     -0.368  0.3410E+03  0.4906E+03
     -0.290  0.2850E+03  0.5129E+03
     -0.212  0.1821E+03  0.5272E+03
     -0.133  0.8819E+02  0.5341E+03
     -0.055  0.3489E+02  0.5368E+03
      0.023  0.4028E+02  0.5400E+03
      0.101  0.4340E+02  0.5434E+03
      0.180  0.1799E+02  0.5448E+03
      0.258  0.3082E+01  0.5450E+03
      0.336  0.6167E+01  0.5455E+03
      0.415  0.2901E+02  0.5478E+03
      0.493  0.5447E+02  0.5520E+03
      0.571  0.5011E+02  0.5560E+03
      0.649  0.3325E+02  0.5586E+03
      0.728  0.2655E+02  0.5606E+03
      0.806  0.2116E+02  0.5623E+03
      0.884  0.3473E+02  0.5650E+03
      0.962  0.7485E+02  0.5709E+03
      1.041  0.9637E+02  0.5784E+03
      1.119  0.7640E+02  0.5844E+03
      1.197  0.5636E+02  0.5888E+03
      1.276  0.4118E+02  0.5920E+03
      1.354  0.5496E+02  0.5963E+03
      1.432  0.7736E+02  0.6024E+03
      1.510  0.5758E+02  0.6069E+03
      1.589  0.3534E+02  0.6097E+03
      1.667  0.3363E+02  0.6123E+03
      1.745  0.5443E+02  0.6166E+03
      1.823  0.6328E+02  0.6215E+03
      1.902  0.3085E+02  0.6239E+03
      1.980  0.1937E+02  0.6254E+03
      2.058  0.2930E+02  0.6277E+03
      2.137  0.4187E+02  0.6310E+03
      2.215  0.6916E+02  0.6364E+03
      2.293  0.7298E+02  0.6421E+03
      2.371  0.5425E+02  0.6464E+03
      2.450  0.3986E+02  0.6495E+03
      2.528  0.3844E+02  0.6525E+03
      2.606  0.5709E+02  0.6570E+03
      2.684  0.8564E+02  0.6637E+03
      2.763  0.9414E+02  0.6711E+03
      2.841  0.7727E+02  0.6771E+03
      2.919  0.5582E+02  0.6815E+03
      2.997  0.5724E+02  0.6859E+03
      3.076  0.6534E+02  0.6911E+03
      3.154  0.7860E+02  0.6972E+03
      3.232  0.7993E+02  0.7035E+03
      3.311  0.7498E+02  0.7093E+03
      3.389  0.9389E+02  0.7167E+03
      3.467  0.1049E+03  0.7249E+03
      3.545  0.9411E+02  0.7323E+03
      3.624  0.8849E+02  0.7392E+03
      3.702  0.8671E+02  0.7460E+03
      3.780  0.7921E+02  0.7522E+03
      3.858  0.8047E+02  0.7585E+03
      3.937  0.1088E+03  0.7670E+03
      4.015  0.1196E+03  0.7764E+03
      4.093  0.1089E+03  0.7849E+03
      4.172  0.9110E+02  0.7920E+03
      4.250  0.6413E+02  0.7970E+03
      4.328  0.5276E+02  0.8012E+03
      4.406  0.7216E+02  0.8068E+03
      4.485  0.9304E+02  0.8141E+03
      4.563  0.9814E+02  0.8218E+03
      4.641  0.1077E+03  0.8302E+03
      4.719  0.1029E+03  0.8383E+03
      4.798  0.6949E+02  0.8437E+03
      4.876  0.5908E+02  0.8483E+03
      4.954  0.5753E+02  0.8528E+03
      5.033  0.3836E+02  0.8558E+03
      5.111  0.3827E+02  0.8588E+03
      5.189  0.4830E+02  0.8626E+03
      5.267  0.4071E+02  0.8658E+03
      5.346  0.4063E+02  0.8690E+03
      5.424  0.4424E+02  0.8724E+03
      5.502  0.5058E+02  0.8764E+03
      5.580  0.6924E+02  0.8818E+03
      5.659  0.6936E+02  0.8872E+03
      5.737  0.4618E+02  0.8908E+03
      5.815  0.2600E+02  0.8929E+03
      5.894  0.1622E+02  0.8942E+03
      5.972  0.1216E+02  0.8951E+03
      6.050  0.7998E+01  0.8957E+03
      6.128  0.2961E+01  0.8960E+03
      6.207  0.4396E+00  0.8960E+03
      6.285  0.2232E-01  0.8960E+03
      6.363  0.3628E-03  0.8960E+03
      6.441  0.1829E-05  0.8960E+03
      6.520  0.2813E-08  0.8960E+03
      6.598  0.1305E-11  0.8960E+03
      6.676  0.0000E+00  0.8960E+03
      6.754  0.0000E+00  0.8960E+03
      6.833  0.0000E+00  0.8960E+03
      6.911  0.0000E+00  0.8960E+03
      6.989  0.0000E+00  0.8960E+03
      7.068  0.0000E+00  0.8960E+03
