       N       E                     dE             d eps       ncg     rms          rms(c)
DAV:   1     0.408492102801E+04    0.40849E+04   -0.16542E+05  1848   0.824E+02
DAV:   2     0.382277315334E+03   -0.37026E+04   -0.34275E+04  2520   0.187E+02
DAV:   3    -0.825790400841E+03   -0.12081E+04   -0.11989E+04  2552   0.105E+02
DAV:   4    -0.869470179596E+03   -0.43680E+02   -0.43427E+02  2144   0.237E+01
DAV:   5    -0.870917217252E+03   -0.14470E+01   -0.14461E+01  2488   0.480E+00    0.640E+01
RMM:   6    -0.708601008014E+03    0.16232E+03   -0.61830E+02  2322   0.213E+01    0.226E+01
RMM:   7    -0.711357680551E+03   -0.27567E+01   -0.12204E+02  2581   0.688E+00    0.186E+01
RMM:   8    -0.707431267581E+03    0.39264E+01   -0.21183E+01  2359   0.463E+00    0.725E+00
RMM:   9    -0.706165831870E+03    0.12654E+01   -0.55946E+00  2352   0.328E+00    0.503E+00
RMM:  10    -0.706028364678E+03    0.13747E+00   -0.12562E+01  2585   0.219E+00    0.543E+00
RMM:  11    -0.705405957334E+03    0.62241E+00   -0.26402E+00  2370   0.142E+00    0.141E+00
RMM:  12    -0.705491917265E+03   -0.85960E-01   -0.14354E+00  2485   0.957E-01    0.141E+00
RMM:  13    -0.705443888039E+03    0.48029E-01   -0.40956E-01  2531   0.568E-01    0.410E-01
RMM:  14    -0.705450488009E+03   -0.66000E-02   -0.77089E-02  2809   0.212E-01    0.653E-01
RMM:  15    -0.705446987886E+03    0.35001E-02   -0.54867E-03  2625   0.627E-02    0.611E-01
RMM:  16    -0.705436516057E+03    0.10472E-01   -0.28322E-02  2461   0.125E-01    0.194E-01
RMM:  17    -0.705432690127E+03    0.38259E-02   -0.12168E-02  2513   0.734E-02    0.180E-01
RMM:  18    -0.705429927306E+03    0.27628E-02   -0.43618E-03  2474   0.533E-02    0.166E-01
RMM:  19    -0.705426188578E+03    0.37387E-02   -0.56649E-03  2683   0.484E-02    0.110E-01
RMM:  20    -0.705425861366E+03    0.32721E-03   -0.16775E-03  2713   0.306E-02    0.802E-02
RMM:  21    -0.705425729163E+03    0.13220E-03   -0.47856E-04  2646   0.185E-02    0.291E-02
RMM:  22    -0.705425703934E+03    0.25229E-04   -0.30904E-04  2680   0.129E-02    0.183E-02
RMM:  23    -0.705425726345E+03   -0.22411E-04   -0.16828E-04  2710   0.105E-02    0.409E-02
RMM:  24    -0.705425686010E+03    0.40335E-04   -0.85549E-05  2594   0.795E-03    0.175E-02
RMM:  25    -0.705425682125E+03    0.38854E-05   -0.27574E-05  2645   0.383E-03    0.857E-03
RMM:  26    -0.705425680958E+03    0.11668E-05   -0.64122E-06  2720   0.194E-03    0.509E-03
RMM:  27    -0.705425679964E+03    0.99447E-06   -0.42597E-06  2691   0.156E-03    0.175E-03
RMM:  28    -0.705425679687E+03    0.27709E-06   -0.70100E-07  2665   0.730E-04    0.100E-03
RMM:  29    -0.705425679749E+03   -0.62249E-07   -0.15435E-06  2589   0.972E-04    0.284E-03
RMM:  30    -0.705425679622E+03    0.12695E-06   -0.97681E-08  1912   0.316E-04    0.249E-03
RMM:  31    -0.705425679487E+03    0.13505E-06   -0.35108E-07  1986   0.442E-04    0.915E-04
RMM:  32    -0.705425679493E+03   -0.62646E-08   -0.16072E-07  1879   0.272E-04    0.149E-04
RMM:  33    -0.705425679488E+03    0.55188E-08   -0.12819E-08  1407   0.105E-04
   1 F= -.70542568E+03 E0= -.70527084E+03  d E =-.309676E+00
