 vasp.6.2.1 16May21 (build Dec 23 2021 00:35:04) complex                        
  
 executed on             LinuxIFC date 2023.03.28  00:24:12
 running on  120 total cores
 distrk:  each k-point on  120 cores,    1 groups
 distr:  one band on NCORE=  15 cores,    8 groups


--------------------------------------------------------------------------------------------------------


 INCAR:
   AMIN = 0.010000
   ENCUT = 400.000000
   KSPACING = 0.500000
   SIGMA = 0.100000
   EDIFF = 1.00e-08
   EDIFFG = -1.00e-02
   ALGO = Fast
   GGA = PE
   PREC = Normal
   IBRION = -1
   ISIF = 3
   ISMEAR = 0
   ISPIN = 0
   LMAXMIX = 6
   NELM = 150
   NPAR = 8
   NSW = 0
   NWRITE = 1
   KGAMMA = .TRUE.
   LASPH = .TRUE.
   LCHARG = .FALSE.
   LWAVE = .FALSE.
   LREAL = AUTO

 POTCAR:    PAW_PBE Cl 06Sep2000                  
 POTCAR:    PAW_PBE Na 08Apr2002                  
 POTCAR:    PAW_PBE O 08Apr2002                   
 POTCAR:    PAW_PBE Cl 06Sep2000                  
  local pseudopotential read in
  partial core-charges read in
  partial kinetic energy density read in
  atomic valenz-charges read in
  non local Contribution for L=           0  read in
    real space projection operators read in
  non local Contribution for L=           0  read in
    real space projection operators read in
  non local Contribution for L=           1  read in
    real space projection operators read in
  non local Contribution for L=           1  read in
    real space projection operators read in
    PAW grid and wavefunctions read in
 
   number of l-projection  operators is LMAX  =           4
   number of lm-projection operators is LMMAX =           8
 
 POTCAR:    PAW_PBE Na 08Apr2002                  
  local pseudopotential read in
  partial core-charges read in
  partial kinetic energy density read in
  atomic valenz-charges read in
  non local Contribution for L=           0  read in
    real space projection operators read in
  non local Contribution for L=           0  read in
    real space projection operators read in
  non local Contribution for L=           1  read in
    real space projection operators read in
    PAW grid and wavefunctions read in
 
   number of l-projection  operators is LMAX  =           3
   number of lm-projection operators is LMMAX =           5
 
 POTCAR:    PAW_PBE O 08Apr2002                   
  local pseudopotential read in
  partial core-charges read in
  partial kinetic energy density read in
  kinetic energy density of atom read in
  atomic valenz-charges read in
  non local Contribution for L=           0  read in
    real space projection operators read in
  non local Contribution for L=           0  read in
    real space projection operators read in
  non local Contribution for L=           1  read in
    real space projection operators read in
  non local Contribution for L=           1  read in
    real space projection operators read in
    PAW grid and wavefunctions read in
 
   number of l-projection  operators is LMAX  =           4
   number of lm-projection operators is LMMAX =           8
 
 Optimization of the real space projectors (new method)

 maximal supplied QI-value         = 19.84
 optimisation between [QCUT,QGAM] = [ 10.12, 20.44] = [ 28.68,116.96] Ry 
 Optimized for a Real-space Cutoff    1.23 Angstroem

   l    n(q)    QCUT    max X(q) W(low)/X(q) W(high)/X(q)  e(spline) 
   0      7    10.119   168.010    0.54E-04    0.25E-03    0.48E-07
   0      7    10.119   164.674    0.53E-04    0.25E-03    0.47E-07
   1      7    10.119    69.222    0.45E-03    0.63E-03    0.13E-06
   1      7    10.119    56.786    0.45E-03    0.62E-03    0.13E-06
 Optimization of the real space projectors (new method)

 maximal supplied QI-value         = 17.01
 optimisation between [QCUT,QGAM] = [ 10.20, 20.41] = [ 29.16,116.64] Ry 
 Optimized for a Real-space Cutoff    1.19 Angstroem

   l    n(q)    QCUT    max X(q) W(low)/X(q) W(high)/X(q)  e(spline) 
   0      7    10.205    45.123    0.22E-03    0.82E-03    0.11E-06
   0      7    10.205    12.364    0.17E-03    0.61E-03    0.75E-07
   1      7    10.205     8.302    0.37E-03    0.15E-03    0.27E-07
 Optimization of the real space projectors (new method)

 maximal supplied QI-value         = 24.76
 optimisation between [QCUT,QGAM] = [ 10.15, 20.30] = [ 28.85,115.39] Ry 
 Optimized for a Real-space Cutoff    1.38 Angstroem

   l    n(q)    QCUT    max X(q) W(low)/X(q) W(high)/X(q)  e(spline) 
   0      8    10.150    20.381    0.22E-03    0.32E-03    0.29E-06
   0      8    10.150    15.268    0.23E-03    0.35E-03    0.30E-06
   1      8    10.150     5.964    0.46E-03    0.53E-03    0.21E-06
   1      8    10.150     5.382    0.38E-03    0.45E-03    0.19E-06
  PAW_PBE Cl 06Sep2000                  :
 energy of atom  1       EATOM= -409.7259
 kinetic energy error for atom=    0.0089 (will be added to EATOM!!)
  PAW_PBE Na 08Apr2002                  :
 energy of atom  2       EATOM=   -5.1581
 kinetic energy error for atom=    0.0001 (will be added to EATOM!!)
  PAW_PBE O 08Apr2002                   :
 energy of atom  3       EATOM= -432.3788
 kinetic energy error for atom=    0.1156 (will be added to EATOM!!)
 
 
 POSCAR: Cl Na  O
  positions in cartesian coordinates
  No initial velocities read in
 exchange correlation table for  LEXCH =        8
   RHO(1)=    0.500       N(1)  =     2000
   RHO(2)=  100.500       N(2)  =     4000
 


--------------------------------------------------------------------------------------------------------


 ion  position               nearest neighbor table
   1  0.192  0.030  0.077-  81 3.15  33 3.15  66 3.15  90 3.15  67 3.17  34 3.17  89 3.17  77 3.17
                            92 3.18  78 3.18  36 3.21  70 3.21
   2  0.192  0.030  0.185-  93 3.15  69 3.15  35 3.15  83 3.15  92 3.16  78 3.16  73 3.17  38 3.17
                            95 3.18  79 3.18  70 3.18  36 3.18
   3  0.192  0.030  0.291-  96 3.15  85 3.15  72 3.15  37 3.15  38 3.16  73 3.16  76 3.17  40 3.17
                            95 3.17  79 3.17  98 3.19  80 3.19
   4  0.192  0.030  0.397- 190 3.09  76 3.11  40 3.11  98 3.14  80 3.14  87 3.15  99 3.15  39 3.15
                            75 3.15
   5  0.192  0.280  0.077-  33 3.15  42 3.15  90 3.15 102 3.15  41 3.17 101 3.17  34 3.17  43 3.17
                            36 3.18  46 3.18  44 3.21 104 3.21
   6  0.192  0.280  0.185-  93 3.15 105 3.15  45 3.15  35 3.15  46 3.15  36 3.15 107 3.17  47 3.17
                            49 3.18  38 3.18  44 3.19 104 3.19
   7  0.192  0.280  0.291-  96 3.15 108 3.15  37 3.15  48 3.15 107 3.16  47 3.16 110 3.17  50 3.17
                            49 3.17  38 3.17  52 3.19  40 3.19
   8  0.192  0.280  0.397- 130 2.13 110 3.12  50 3.12  40 3.14  52 3.14 111 3.15  99 3.15  51 3.15
                            39 3.15
   9  0.192  0.530  0.077- 114 3.15 102 3.15  54 3.15  42 3.15  43 3.17  55 3.17 113 3.17  53 3.17
                            56 3.18 116 3.18  46 3.21  58 3.21
  10  0.192  0.530  0.185-  57 3.15 105 3.15 117 3.15  45 3.15  56 3.16 116 3.16  49 3.17  61 3.17
                           119 3.18  59 3.18  46 3.18  58 3.18
  11  0.192  0.530  0.291- 108 3.15 120 3.15  60 3.15  48 3.15  61 3.16  49 3.16  52 3.17  64 3.17
                           119 3.17  59 3.17 122 3.19  62 3.19
  12  0.192  0.530  0.397- 154 2.00  64 3.11  52 3.11 122 3.14  62 3.14 111 3.15 123 3.15  63 3.15
                            51 3.15
  13  0.192  0.780  0.077-  54 3.15  66 3.15 114 3.15  81 3.15  65 3.17 125 3.17  55 3.17  67 3.17
                            58 3.18  70 3.18  68 3.21 126 3.21
  14  0.192  0.780  0.185-  57 3.15 117 3.15  83 3.15  69 3.15  70 3.15  58 3.15 127 3.17  71 3.17
                            73 3.18  61 3.18 126 3.19  68 3.19
  15  0.192  0.780  0.291-  60 3.15  72 3.15 120 3.15  85 3.15  71 3.16 127 3.16  74 3.17 128 3.17
                            61 3.17  73 3.17  64 3.19  76 3.19
  16  0.192  0.780  0.397- 190 2.80 128 3.12  74 3.12  64 3.14  76 3.14  87 3.15 123 3.15  75 3.15
                            63 3.15
  17  0.692  0.030  0.077-  42 3.15  33 3.15  81 3.15 114 3.15 115 3.17  82 3.17  41 3.17 125 3.17
                           126 3.18  44 3.18  84 3.21 118 3.21
  18  0.692  0.030  0.185-  83 3.15  45 3.15  35 3.15 117 3.15 126 3.16  44 3.16 121 3.17  86 3.17
                            47 3.18 127 3.18  84 3.18 118 3.18
  19  0.692  0.030  0.291-  48 3.15  37 3.15  85 3.15 120 3.15  86 3.16 121 3.16 124 3.17  88 3.17
                           127 3.17  47 3.17  50 3.19 128 3.19
  20  0.692  0.030  0.397- 226 2.63 124 3.11  88 3.11 142 3.13  50 3.14 128 3.14  39 3.15  51 3.15
                            87 3.15 123 3.15
  21  0.692  0.280  0.077-  81 3.15  90 3.15  42 3.15  54 3.15  89 3.17  53 3.17  82 3.17  91 3.17
                            84 3.18  94 3.18  92 3.21  56 3.21
  22  0.692  0.280  0.185-  83 3.15  45 3.15  57 3.15  93 3.15  94 3.15  84 3.15  59 3.17  95 3.17
                            97 3.18  86 3.18  56 3.19  92 3.19
  23  0.692  0.280  0.291-  85 3.15  96 3.15  48 3.15  60 3.15  95 3.16  59 3.16  98 3.17  62 3.17
                            86 3.17  97 3.17  88 3.19 100 3.19
  24  0.692  0.280  0.397- 166 2.52  62 3.12  98 3.12  88 3.14 100 3.14  63 3.15  51 3.15  99 3.15
                            87 3.15 142 3.41
  25  0.692  0.530  0.077- 102 3.15  54 3.15  90 3.15  66 3.15  91 3.17 103 3.17  65 3.17 101 3.17
                            68 3.18 104 3.18 106 3.21  94 3.21
  26  0.692  0.530  0.185-  69 3.15 105 3.15  93 3.15  57 3.15  68 3.16 104 3.16  97 3.17 109 3.17
                            71 3.18 107 3.18  94 3.18 106 3.18
  27  0.692  0.530  0.291-  60 3.15  72 3.15 108 3.15  96 3.15 109 3.16  97 3.16 100 3.17 112 3.17
                            71 3.17 107 3.17  74 3.19 110 3.19
  28  0.692  0.530  0.397- 178 2.57 100 3.11 112 3.11  74 3.14 110 3.14  63 3.15  75 3.15 111 3.15
                            99 3.15 202 3.20
  29  0.692  0.780  0.077- 102 3.15 114 3.15  66 3.15  33 3.15 113 3.17  77 3.17 103 3.17 115 3.17
                           106 3.18 118 3.18 116 3.21  78 3.21
  30  0.692  0.780  0.185-  35 3.15  69 3.15 117 3.15 105 3.15 118 3.15 106 3.15  79 3.17 119 3.17
                           121 3.18 109 3.18  78 3.19 116 3.19
  31  0.692  0.780  0.291- 108 3.15 120 3.15  72 3.15  37 3.15 119 3.16  79 3.16 122 3.17  80 3.17
                           109 3.17 121 3.17 112 3.19 124 3.19
  32  0.692  0.780  0.397- 214 2.44  80 3.12 122 3.12 112 3.14 124 3.14  39 3.15  75 3.15 123 3.15
                           111 3.15
  33  0.442  0.030  0.078- 237 2.24 238 2.26   5 3.15   1 3.15  17 3.15  29 3.15  78 3.17  44 3.17
                            36 3.17 118 3.17  41 3.19  77 3.19  34 3.19 115 3.19
  34  0.192  0.155  0.024- 257 2.23 237 2.23 139 2.62  89 3.15  77 3.15 101 3.15  41 3.15   1 3.17
                             5 3.17  90 3.19  33 3.19 211 3.76 151 3.86 140 4.21
  35  0.442  0.030  0.185- 239 2.26 238 2.26  30 3.15  18 3.15   2 3.15   6 3.15  79 3.17  47 3.17
                           118 3.17  36 3.17 121 3.17  38 3.17  44 3.18  78 3.18
  36  0.192  0.157  0.131- 258 2.23 238 2.23  78 3.15  92 3.15  44 3.15 104 3.15   6 3.15  93 3.17
                            90 3.17  35 3.17  33 3.17   5 3.18   2 3.18   1 3.21
  37  0.442  0.030  0.291- 239 2.26 240 2.26  19 3.15   3 3.15   7 3.15  31 3.15  79 3.17  47 3.17
                            38 3.17 121 3.17  80 3.17  50 3.17 124 3.18  40 3.18
  38  0.192  0.155  0.238- 259 2.23 239 2.23  95 3.15  79 3.15 107 3.15  47 3.15   3 3.16  96 3.17
                             2 3.17  37 3.17   7 3.17  93 3.17  35 3.17   6 3.18
  39  0.442  0.030  0.397- 240 2.22 214 2.67 124 3.14  40 3.14  80 3.14  50 3.14  32 3.15  20 3.15
                             4 3.15   8 3.15 130 3.16 141 4.19
  40  0.192  0.155  0.345- 260 2.23 240 2.23   4 3.11  39 3.14   8 3.14  99 3.14  80 3.15  98 3.15
                            50 3.15 110 3.15   3 3.17  96 3.18  37 3.18   7 3.19
  41  0.442  0.155  0.024- 237 2.23 241 2.23 151 2.36  82 3.15 115 3.15  43 3.15  34 3.15   5 3.17
                            17 3.17  33 3.19  42 3.19 163 3.58
  42  0.442  0.280  0.078- 241 2.24 242 2.26  17 3.15  21 3.15   5 3.15   9 3.15  56 3.17  44 3.17
                            84 3.17  46 3.17  43 3.19  82 3.19  41 3.19  53 3.19
  43  0.192  0.405  0.024- 163 2.02 241 2.23 261 2.23  53 3.15 113 3.15  41 3.15 101 3.15   9 3.17
                             5 3.17  42 3.19 102 3.19
  44  0.445  0.154  0.131- 238 2.23 242 2.23 118 3.15  84 3.15  36 3.15  46 3.15  18 3.16  33 3.17
                            42 3.17  35 3.18  45 3.18  17 3.18   6 3.19   5 3.21
  45  0.442  0.280  0.185- 242 2.26 243 2.26  18 3.15  22 3.15   6 3.15  10 3.15  84 3.17  46 3.17
                            49 3.17  86 3.17  47 3.17  59 3.17  56 3.18  44 3.18
  46  0.192  0.404  0.131- 242 2.23 262 2.23 116 3.15  56 3.15 104 3.15  44 3.15   6 3.15  45 3.17
                            42 3.17 105 3.17 102 3.17   5 3.18  10 3.18   9 3.21
  47  0.442  0.156  0.238- 239 2.23 243 2.23  86 3.15 121 3.15  49 3.15  38 3.15   7 3.16  37 3.17
                             6 3.17  35 3.17  19 3.17  48 3.17  45 3.17  18 3.18
  48  0.442  0.280  0.291- 243 2.26 244 2.26  19 3.15   7 3.15  23 3.15  11 3.15  86 3.17  49 3.17
                            47 3.17  59 3.17  50 3.17  62 3.17  88 3.18  52 3.18
  49  0.192  0.406  0.238- 243 2.23 263 2.23  59 3.15 119 3.15  47 3.15 107 3.15  11 3.16  48 3.17
                            10 3.17   7 3.17 108 3.17  45 3.17 105 3.17   6 3.18
  50  0.441  0.156  0.345- 240 2.23 244 2.23   8 3.12  20 3.14  39 3.14  51 3.14 124 3.15  88 3.15
                            40 3.15  52 3.15   7 3.17  48 3.17  37 3.17  19 3.19
  51  0.442  0.280  0.397- 142 2.08 244 2.22  88 3.14  52 3.14  50 3.14  62 3.14  20 3.15  24 3.15
                             8 3.15  12 3.15 154 4.00
  52  0.192  0.406  0.345- 244 2.23 264 2.23  12 3.11 111 3.14   8 3.14  51 3.14 122 3.15  62 3.15
                           110 3.15  50 3.15  11 3.17  48 3.18 108 3.18   7 3.19
  53  0.442  0.405  0.024- 187 2.22 245 2.23 241 2.23  43 3.15  55 3.15  82 3.15  91 3.15  21 3.17
                             9 3.17  54 3.19  42 3.19 163 3.82
  54  0.442  0.530  0.078- 245 2.24 246 2.26  13 3.15  25 3.15   9 3.15  21 3.15  68 3.17  56 3.17
                            58 3.17  94 3.17  65 3.19  53 3.19  55 3.19  91 3.19
  55  0.192  0.655  0.024- 265 2.23 245 2.23 199 2.39 113 3.15  53 3.15 125 3.15  65 3.15   9 3.17
                            13 3.17 114 3.19  54 3.19 235 3.91 187 4.01
  56  0.440  0.407  0.131- 246 2.23 242 2.23  58 3.15  46 3.15  94 3.15  84 3.15  10 3.16  54 3.17
                            42 3.17  45 3.18  57 3.18   9 3.18  22 3.19  21 3.21
  57  0.442  0.530  0.185- 247 2.26 246 2.26  10 3.15  14 3.15  26 3.15  22 3.15  59 3.17  71 3.17
                            94 3.17  58 3.17  61 3.17  97 3.17  68 3.18  56 3.18
  58  0.192  0.657  0.131- 266 2.23 246 2.23  56 3.15 116 3.15  68 3.15 126 3.15  14 3.15 117 3.17
                           114 3.17  57 3.17  54 3.17  13 3.18  10 3.18   9 3.21
  59  0.443  0.405  0.238- 247 2.23 243 2.23  49 3.15  61 3.15  86 3.15  97 3.15  23 3.16  60 3.17
                            57 3.17  22 3.17  11 3.17  48 3.17  45 3.17  10 3.18
  60  0.442  0.530  0.291- 247 2.26 248 2.26  15 3.15  27 3.15  11 3.15  23 3.15  59 3.17  71 3.17
                            61 3.17  97 3.17  74 3.17  62 3.17 100 3.18  64 3.18
  61  0.192  0.655  0.238- 267 2.23 247 2.23 119 3.15  59 3.15 127 3.15  71 3.15  11 3.16 120 3.17
                            15 3.17  10 3.17  60 3.17 117 3.17  57 3.17  14 3.18
  62  0.444  0.405  0.345- 248 2.23 244 2.23  24 3.12  12 3.14  63 3.14  51 3.14  64 3.15  52 3.15
                           100 3.15  88 3.15  23 3.17  48 3.17  60 3.17  11 3.19
  63  0.442  0.530  0.397- 248 2.22 178 2.44 100 3.14  64 3.14  62 3.14  74 3.14  24 3.15  28 3.15
                            12 3.15  16 3.15 154 3.34
  64  0.192  0.655  0.345- 268 2.23 248 2.23  12 3.11  63 3.14  16 3.14 123 3.14  62 3.15 122 3.15
                            74 3.15 128 3.15  11 3.17 120 3.18  60 3.18  15 3.19
  65  0.442  0.655  0.024- 245 2.23 249 2.23 223 2.96 199 3.10 103 3.15  91 3.15  67 3.15  55 3.15
                            13 3.17  25 3.17  54 3.19  66 3.19 188 4.21
  66  0.442  0.780  0.078- 249 2.24 250 2.26  13 3.15   1 3.15  25 3.15  29 3.15  78 3.17  68 3.17
                           106 3.17  70 3.17  67 3.19 103 3.19  65 3.19  77 3.19
  67  0.192  0.905  0.024- 249 2.23 253 2.23  77 3.15  89 3.15  65 3.15 125 3.15   1 3.17  13 3.17
                            66 3.19  81 3.19 139 3.42 175 3.54 223 3.64 199 3.75 200 4.01
  68  0.445  0.654  0.131- 246 2.23 250 2.23  94 3.15 106 3.15  58 3.15  70 3.15  26 3.16  54 3.17
                            66 3.17  57 3.18  25 3.18  69 3.18  14 3.19  13 3.21
  69  0.442  0.780  0.185- 250 2.26 251 2.26  30 3.15  26 3.15   2 3.15  14 3.15  70 3.17 106 3.17
                            73 3.17 109 3.17  79 3.17  71 3.17  78 3.18  68 3.18
  70  0.192  0.904  0.131- 250 2.23 254 2.23  92 3.15  78 3.15 126 3.15  68 3.15  14 3.15  69 3.17
                            66 3.17  83 3.17  81 3.17  13 3.18   2 3.18   1 3.21
  71  0.442  0.656  0.238- 247 2.23 251 2.23 109 3.15  97 3.15  73 3.15  61 3.15  15 3.16  60 3.17
                            57 3.17  14 3.17  27 3.17  72 3.17  69 3.17  26 3.18
  72  0.442  0.780  0.291- 251 2.26 252 2.26  27 3.15  31 3.15  15 3.15   3 3.15 109 3.17  73 3.17
                            71 3.17  79 3.17  80 3.17  74 3.17 112 3.18  76 3.18
  73  0.192  0.906  0.238- 251 2.23 255 2.23  79 3.15  95 3.15  71 3.15 127 3.15   3 3.16  72 3.17
                            15 3.17   2 3.17  85 3.17  69 3.17  83 3.17  14 3.18
  74  0.441  0.656  0.345- 248 2.23 252 2.23  16 3.12  28 3.14  63 3.14  75 3.14 100 3.15 112 3.15
                            64 3.15  76 3.15  15 3.17  72 3.17  60 3.17  27 3.19
  75  0.442  0.780  0.397- 252 2.22 190 2.89 112 3.14  76 3.14  74 3.14  80 3.14  28 3.15  32 3.15
                            16 3.15   4 3.15 214 3.45 178 3.79 213 4.00
  76  0.192  0.906  0.345- 252 2.23 256 2.23   4 3.11  87 3.14  16 3.14  75 3.14  98 3.15  80 3.15
                           128 3.15  74 3.15   3 3.17  72 3.18  85 3.18  15 3.19 190 4.12
  77  0.442  0.905  0.024- 237 2.23 249 2.23 139 3.00  67 3.15  34 3.15 103 3.15 115 3.15  29 3.17
                             1 3.17  33 3.19  66 3.19 223 3.25 151 4.12 224 4.13
  78  0.440  0.907  0.131- 238 2.23 250 2.23  36 3.15  70 3.15 118 3.15 106 3.15   2 3.16  33 3.17
                            66 3.17  35 3.18  69 3.18   1 3.18  30 3.19  29 3.21
  79  0.443  0.905  0.238- 239 2.23 251 2.23  73 3.15  38 3.15 109 3.15 121 3.15  31 3.16  37 3.17
                            30 3.17  35 3.17   3 3.17  72 3.17  69 3.17   2 3.18
  80  0.444  0.905  0.345- 240 2.23 252 2.23  32 3.12   4 3.14  39 3.14  75 3.14  40 3.15  76 3.15
                           124 3.15 112 3.15  31 3.17  72 3.17  37 3.17   3 3.19
  81  0.942  0.030  0.078- 253 2.24 254 2.26  21 3.15   1 3.15  17 3.15  13 3.15  92 3.17 126 3.17
                            84 3.17  70 3.17  89 3.19 125 3.19  82 3.19  67 3.19
  82  0.692  0.155  0.024- 241 2.23 253 2.23 175 2.54  41 3.15 125 3.15  53 3.15  89 3.15  17 3.17
                            21 3.17  42 3.19  81 3.19 187 3.70 151 4.01
  83  0.942  0.030  0.185- 255 2.26 254 2.26  18 3.15  22 3.15   2 3.15  14 3.15 127 3.17  95 3.17
                            70 3.17  84 3.17  86 3.17  73 3.17  92 3.18 126 3.18
  84  0.692  0.157  0.131- 242 2.23 254 2.23 126 3.15  44 3.15  92 3.15  56 3.15  22 3.15  45 3.17
                            42 3.17  83 3.17  81 3.17  21 3.18  18 3.18  17 3.21
  85  0.942  0.030  0.291- 255 2.26 256 2.26  23 3.15   3 3.15  19 3.15  15 3.15 127 3.17  95 3.17
                            86 3.17  73 3.17  98 3.17 128 3.17  76 3.18  88 3.18
  86  0.692  0.155  0.238- 243 2.23 255 2.23  47 3.15 127 3.15  59 3.15  95 3.15  19 3.16  48 3.17
                            23 3.17  18 3.17  85 3.17  45 3.17  83 3.17  22 3.18
  87  0.942  0.030  0.397- 256 2.22 190 2.98  76 3.14  88 3.14 128 3.14  98 3.14  16 3.15   4 3.15
                            20 3.15  24 3.15 166 3.44 226 3.75 165 3.98 142 4.12
  88  0.692  0.155  0.345- 244 2.23 256 2.23  20 3.11  87 3.14  24 3.14  51 3.14 128 3.15  50 3.15
                            98 3.15  62 3.15  19 3.17  48 3.18  85 3.18  23 3.19
  89  0.942  0.155  0.024- 253 2.23 257 2.23 139 3.09  34 3.15  67 3.15  91 3.15  82 3.15  21 3.17
                             1 3.17  81 3.19  90 3.19 175 3.21 176 4.11 211 4.11 187 4.19
  90  0.942  0.280  0.078- 257 2.24 258 2.26  21 3.15  25 3.15   1 3.15   5 3.15 104 3.17  92 3.17
                            36 3.17  94 3.17  91 3.19  34 3.19  89 3.19 101 3.19
  91  0.692  0.405  0.024- 257 2.23 245 2.23 211 2.84 187 2.98 101 3.15  65 3.15  89 3.15  53 3.15
                            25 3.17  21 3.17  90 3.19  54 3.19
  92  0.945  0.154  0.131- 254 2.23 258 2.23  70 3.15  36 3.15  84 3.15  94 3.15   2 3.16  81 3.17
                            90 3.17  83 3.18  93 3.18   1 3.18  22 3.19  21 3.21
  93  0.942  0.280  0.185- 258 2.26 259 2.26   6 3.15   2 3.15  26 3.15  22 3.15  94 3.17  36 3.17
                            38 3.17  97 3.17  95 3.17 107 3.17 104 3.18  92 3.18
  94  0.692  0.404  0.131- 258 2.23 246 2.23  68 3.15 104 3.15  56 3.15  92 3.15  22 3.15  93 3.17
                            90 3.17  57 3.17  54 3.17  21 3.18  26 3.18  25 3.21
  95  0.942  0.156  0.238- 255 2.23 259 2.23  38 3.15  73 3.15  97 3.15  86 3.15  23 3.16  85 3.17
                            83 3.17  22 3.17   3 3.17  96 3.17  93 3.17   2 3.18
  96  0.942  0.280  0.291- 259 2.26 260 2.26   7 3.15   3 3.15  23 3.15  27 3.15  38 3.17  97 3.17
                            95 3.17 107 3.17  98 3.17 110 3.17  40 3.18 100 3.18
  97  0.692  0.406  0.238- 259 2.23 247 2.23 107 3.15  71 3.15  95 3.15  59 3.15  27 3.16  96 3.17
                            23 3.17  26 3.17  60 3.17  93 3.17  57 3.17  22 3.18
  98  0.941  0.156  0.345- 256 2.23 260 2.23  24 3.12   4 3.14  87 3.14  99 3.14  76 3.15  40 3.15
                            88 3.15 100 3.15  23 3.17  96 3.17  85 3.17   3 3.19 166 4.21
  99  0.942  0.280  0.397- 260 2.22 166 2.62  40 3.14 100 3.14  98 3.14 110 3.14   4 3.15   8 3.15
                            24 3.15  28 3.15 130 3.24 201 4.18
 100  0.692  0.406  0.345- 260 2.23 248 2.23  28 3.11  63 3.14  24 3.14  99 3.14  74 3.15 110 3.15
                            62 3.15  98 3.15  27 3.17  96 3.18  60 3.18  23 3.19
 101  0.942  0.405  0.024- 261 2.23 257 2.23 211 2.31  91 3.15 103 3.15  34 3.15  43 3.15   5 3.17
                            25 3.17 102 3.19  90 3.19 163 3.66
 102  0.942  0.530  0.078- 261 2.24 262 2.26  29 3.15  25 3.15   9 3.15   5 3.15 104 3.17 116 3.17
                           106 3.17  46 3.17 113 3.19 101 3.19 103 3.19  43 3.19
 103  0.692  0.655  0.024- 249 2.23 261 2.23 223 2.46  65 3.15 101 3.15  77 3.15 113 3.15  25 3.17
                            29 3.17  66 3.19 102 3.19 235 3.76 211 4.04
 104  0.940  0.407  0.131- 262 2.23 258 2.23 106 3.15  94 3.15  46 3.15  36 3.15  26 3.16 102 3.17
                            90 3.17 105 3.18  93 3.18  25 3.18   6 3.19   5 3.21
 105  0.942  0.530  0.185- 263 2.26 262 2.26   6 3.15  10 3.15  26 3.15  30 3.15 107 3.17 119 3.17
                            46 3.17 106 3.17  49 3.17 109 3.17 116 3.18 104 3.18
 106  0.692  0.657  0.131- 250 2.23 262 2.23 104 3.15  68 3.15 116 3.15  78 3.15  30 3.15  69 3.17
                            66 3.17 105 3.17 102 3.17  29 3.18  26 3.18  25 3.21
 107  0.943  0.405  0.238- 263 2.23 259 2.23  97 3.15 109 3.15  38 3.15  49 3.15   7 3.16 108 3.17
                           105 3.17   6 3.17  27 3.17  96 3.17  93 3.17  26 3.18
 108  0.942  0.530  0.291- 263 2.26 264 2.26  31 3.15  11 3.15   7 3.15  27 3.15 107 3.17 119 3.17
                           109 3.17  49 3.17 122 3.17 110 3.17  52 3.18 112 3.18
 109  0.692  0.655  0.238- 251 2.23 263 2.23  71 3.15 107 3.15  79 3.15 119 3.15  27 3.16  72 3.17
                            31 3.17  26 3.17 108 3.17  69 3.17 105 3.17  30 3.18
 110  0.944  0.405  0.345- 264 2.23 260 2.23   8 3.12  28 3.14 111 3.14  99 3.14 112 3.15 100 3.15
                            52 3.15  40 3.15   7 3.17  96 3.17 108 3.17  27 3.19
 111  0.942  0.530  0.397- 202 2.03 264 2.22  52 3.14 112 3.14 110 3.14 122 3.14   8 3.15  12 3.15
                            28 3.15  32 3.15 154 4.07
 112  0.692  0.655  0.345- 252 2.23 264 2.23  28 3.11 111 3.14  32 3.14  75 3.14 110 3.15  74 3.15
                           122 3.15  80 3.15  27 3.17  72 3.18 108 3.18  31 3.19
 113  0.942  0.655  0.024- 235 2.18 261 2.23 265 2.23  55 3.15  43 3.15 115 3.15 103 3.15  29 3.17
                             9 3.17 102 3.19 114 3.19 163 3.89
 114  0.942  0.780  0.078- 265 2.24 266 2.26   9 3.15  13 3.15  29 3.15  17 3.15 126 3.17 116 3.17
                            58 3.17 118 3.17 115 3.19  55 3.19 113 3.19 125 3.19
 115  0.692  0.905  0.024- 265 2.23 237 2.23 151 2.77 235 3.03 125 3.15  41 3.15 113 3.15  77 3.15
                            17 3.17  29 3.17 114 3.19  33 3.19
 116  0.945  0.654  0.131- 262 2.23 266 2.23  46 3.15  58 3.15 106 3.15 118 3.15  10 3.16 102 3.17
                           114 3.17 105 3.18 117 3.18   9 3.18  30 3.19  29 3.21
 117  0.942  0.780  0.185- 266 2.26 267 2.26  30 3.15  10 3.15  18 3.15  14 3.15 118 3.17  58 3.17
                           121 3.17  61 3.17 119 3.17 127 3.17 126 3.18 116 3.18
 118  0.692  0.904  0.131- 266 2.23 238 2.23  44 3.15 126 3.15  78 3.15 116 3.15  30 3.15 117 3.17
                           114 3.17  35 3.17  33 3.17  29 3.18  18 3.18  17 3.21
 119  0.942  0.656  0.238- 263 2.23 267 2.23  61 3.15  49 3.15 121 3.15 109 3.15  31 3.16 108 3.17
                            30 3.17 105 3.17  11 3.17 120 3.17 117 3.17  10 3.18
 120  0.942  0.780  0.291- 267 2.26 268 2.26  31 3.15  11 3.15  19 3.15  15 3.15  61 3.17 121 3.17
                           119 3.17 127 3.17 122 3.17 128 3.17 124 3.18  64 3.18
 121  0.692  0.906  0.238- 267 2.23 239 2.23 127 3.15  47 3.15 119 3.15  79 3.15  19 3.16 120 3.17
                            31 3.17  18 3.17  37 3.17 117 3.17  35 3.17  30 3.18
 122  0.941  0.656  0.345- 264 2.23 268 2.23  32 3.12  12 3.14 111 3.14 123 3.14  52 3.15  64 3.15
                           112 3.15 124 3.15  31 3.17 120 3.17 108 3.17  11 3.19
 123  0.942  0.780  0.397- 268 2.22 226 2.40  64 3.14 124 3.14 122 3.14 128 3.14  12 3.15  16 3.15
                            32 3.15  20 3.15 154 3.41
 124  0.692  0.906  0.345- 268 2.23 240 2.23  20 3.11  39 3.14  32 3.14 123 3.14  50 3.15 128 3.15
                            80 3.15 122 3.15  19 3.17 120 3.18  37 3.18  31 3.19
 125  0.942  0.905  0.024- 253 2.23 265 2.23 175 2.93 115 3.15  82 3.15  55 3.15  67 3.15  13 3.17
                            17 3.17 199 3.18  81 3.19 114 3.19 236 4.17
 126  0.940  0.907  0.131- 254 2.23 266 2.23  84 3.15 118 3.15  70 3.15  58 3.15  18 3.16  81 3.17
                           114 3.17 117 3.18  83 3.18  17 3.18  14 3.19  13 3.21
 127  0.943  0.905  0.238- 255 2.23 267 2.23 121 3.15  86 3.15  61 3.15  73 3.15  15 3.16  85 3.17
                            83 3.17  14 3.17  19 3.17 120 3.17 117 3.17  18 3.18
 128  0.944  0.905  0.345- 256 2.23 268 2.23  16 3.12  20 3.14  87 3.14 123 3.14  88 3.15 124 3.15
                            76 3.15  64 3.15  15 3.17 120 3.17  85 3.17  19 3.19
 129  0.200  0.057  0.490- 132 3.56 192 3.56 190 3.58 216 3.58 168 3.58 214 3.59 130 3.59 166 3.59
                           131 4.09 165 4.18 141 4.18 213 4.21 201 4.21
 130  0.199  0.224  0.442-   8 2.13  39 3.16  99 3.24 153 3.58 201 3.58 141 3.59 129 3.59 132 3.97
                           142 4.19 166 4.20 202 4.21 214 4.22
 131  0.200  0.057  0.586- 218 3.63 170 3.63 134 3.64 194 3.64 168 3.65 216 3.65 192 3.65 132 3.65
                           129 4.09 133 4.16 143 4.17 167 4.17 215 4.21 203 4.21
 132  0.200  0.224  0.536- 141 3.55 201 3.55 129 3.56 153 3.56 143 3.65 203 3.65 131 3.65 155 3.65
                           130 3.97 144 4.18 168 4.19
 133  0.199  0.058  0.685- 134 3.61 194 3.61 170 3.62 218 3.62 196 3.62 136 3.62 220 3.64 172 3.64
                           135 4.13 131 4.16 145 4.18 169 4.18
 134  0.199  0.224  0.636- 205 3.60 145 3.60 157 3.61 133 3.61 203 3.63 143 3.63 155 3.64 131 3.64
                           136 4.13 146 4.18 170 4.18 206 4.22 218 4.22
 135  0.199  0.058  0.782- 172 3.60 220 3.61 196 3.61 136 3.61 174 3.63 222 3.63 198 3.64 138 3.64
                           133 4.13 147 4.18 171 4.18 207 4.21
 136  0.199  0.224  0.734- 135 3.61 159 3.61 147 3.61 207 3.62 133 3.62 157 3.62 205 3.63 145 3.64
                           134 4.13 138 4.16 148 4.18 172 4.18
 137  0.199  0.057  0.882- 224 3.55 176 3.55 140 3.56 200 3.56 174 3.65 198 3.65 222 3.65 138 3.65
                           139 3.96 149 4.18 173 4.19
 138  0.199  0.224  0.832- 147 3.63 207 3.63 159 3.64 209 3.64 149 3.64 135 3.64 161 3.65 137 3.65
                           140 4.09 136 4.16 150 4.17 174 4.18 210 4.21 222 4.21
 139  0.199  0.058  0.976-  34 2.62  77 3.00  89 3.09  67 3.42 140 3.58 176 3.58 200 3.58 224 3.58
                           137 3.96 175 4.20 151 4.20 211 4.21 223 4.21
 140  0.199  0.224  0.929- 137 3.56 161 3.56 209 3.57 139 3.58 149 3.58 163 3.58 211 3.59 151 3.59
                           138 4.09 152 4.18 176 4.18  34 4.21 212 4.21 224 4.21
 141  0.532  0.056  0.490- 132 3.55 144 3.56 228 3.57 216 3.57 214 3.58 226 3.58 130 3.59 142 3.60
                           143 4.09 225 4.17 129 4.18  39 4.19 153 4.21
 142  0.533  0.223  0.442-  51 2.08  20 3.13  24 3.41 177 3.58 153 3.58 165 3.59 141 3.60 144 3.99
                            87 4.12 226 4.18 130 4.19 166 4.20 154 4.22
 143  0.532  0.057  0.587- 146 3.62 218 3.62 134 3.63 230 3.63 144 3.64 228 3.64 216 3.65 132 3.65
                           141 4.09 145 4.13 131 4.17 227 4.18 155 4.21
 144  0.534  0.222  0.537- 141 3.56 165 3.57 177 3.57 153 3.58 143 3.64 155 3.65 179 3.65 167 3.65
                           142 3.99 228 4.15 132 4.18 146 4.19
 145  0.533  0.056  0.684- 134 3.60 218 3.61 230 3.61 146 3.61 136 3.64 232 3.64 148 3.64 220 3.64
                           143 4.13 229 4.15 147 4.16 133 4.18
 146  0.533  0.223  0.636- 181 3.61 169 3.61 145 3.61 157 3.62 143 3.62 179 3.63 155 3.63 167 3.64
                           148 4.16 230 4.16 134 4.18 144 4.19
 147  0.532  0.056  0.783- 148 3.60 232 3.61 136 3.61 220 3.62 150 3.62 222 3.63 138 3.63 234 3.64
                           145 4.16 231 4.17 135 4.18 149 4.19 159 4.21
 148  0.533  0.222  0.734- 159 3.60 147 3.60 171 3.61 183 3.61 169 3.63 157 3.64 145 3.64 181 3.64
                           150 4.13 232 4.15 146 4.16 136 4.18
 149  0.533  0.055  0.882- 236 3.56 224 3.56 152 3.57 140 3.58 138 3.64 222 3.64 150 3.65 234 3.65
                           151 3.99 233 4.15 137 4.18 147 4.19
 150  0.532  0.223  0.832- 147 3.62 183 3.62 171 3.63 159 3.63 149 3.65 173 3.65 185 3.65 161 3.65
                           152 4.09 148 4.13 138 4.17 234 4.18 162 4.22
 151  0.534  0.057  0.976-  41 2.36 237 2.55 115 2.77 152 3.58 236 3.58 140 3.59 224 3.60  34 3.86
                           149 3.99  82 4.01  77 4.12 235 4.18 139 4.20 175 4.20 163 4.21
 152  0.533  0.223  0.929- 161 3.55 185 3.56 173 3.56 149 3.57 151 3.58 163 3.59 175 3.59 187 3.60
                           150 4.09 236 4.17 140 4.18 164 4.21
 153  0.200  0.391  0.490- 132 3.56 156 3.56 144 3.58 130 3.58 204 3.58 142 3.58 202 3.59 154 3.59
                           155 4.09 201 4.18 177 4.18 141 4.21 225 4.21
 154  0.199  0.558  0.442-  12 2.00  63 3.34 123 3.41 189 3.58 225 3.58 177 3.59 153 3.59 156 3.97
                            51 4.00 111 4.07 178 4.20 202 4.20 226 4.20 142 4.22
 155  0.199  0.391  0.586- 146 3.63 206 3.63 134 3.64 158 3.64 204 3.64 144 3.65 132 3.65 156 3.66
                           153 4.09 157 4.16 203 4.17 179 4.18 227 4.21 143 4.21
 156  0.200  0.557  0.536- 177 3.55 225 3.55 189 3.56 153 3.56 179 3.65 227 3.65 191 3.65 155 3.66
                           154 3.97 180 4.19 204 4.19
 157  0.199  0.391  0.685- 158 3.61 134 3.61 206 3.62 146 3.62 136 3.62 160 3.63 148 3.64 208 3.64
                           159 4.13 155 4.16 205 4.18 181 4.18
 158  0.200  0.557  0.636- 181 3.60 229 3.60 193 3.61 157 3.61 227 3.63 179 3.63 191 3.64 155 3.64
                           160 4.13 206 4.18 182 4.19 230 4.22
 159  0.199  0.391  0.782- 208 3.60 148 3.60 136 3.61 160 3.61 210 3.63 150 3.63 138 3.64 162 3.64
                           157 4.13 183 4.18 207 4.19 231 4.21 147 4.21
 160  0.199  0.558  0.734- 195 3.61 159 3.61 183 3.62 231 3.62 193 3.62 157 3.63 229 3.63 181 3.64
                           158 4.13 162 4.16 184 4.18 208 4.18
 161  0.199  0.391  0.882- 152 3.55 212 3.55 164 3.56 140 3.56 138 3.65 210 3.65 162 3.65 150 3.65
                           163 3.96 209 4.19 185 4.19
 162  0.199  0.558  0.832- 231 3.63 183 3.63 233 3.64 159 3.64 195 3.64 185 3.64 197 3.65 161 3.65
                           164 4.09 160 4.16 186 4.17 210 4.18 234 4.20 150 4.22
 163  0.199  0.391  0.976-  43 2.02 241 2.99 261 3.08 164 3.58  41 3.58 140 3.58 212 3.58 152 3.59
                           101 3.66  53 3.82 113 3.89 161 3.96 211 4.20 187 4.20 235 4.21 151 4.21
 164  0.199  0.557  0.929- 161 3.56 197 3.56 185 3.58 233 3.58 199 3.58 163 3.58 187 3.59 235 3.59
                           162 4.09 188 4.18 212 4.18 152 4.21 236 4.22
 165  0.867  0.058  0.490- 192 3.55 144 3.57 168 3.57 228 3.57 166 3.57 190 3.58 142 3.59 226 3.60
                            87 3.98 167 4.09 177 4.17 129 4.18 189 4.21
 166  0.865  0.225  0.442-  24 2.52  99 2.62  87 3.44 165 3.57 177 3.58 129 3.59 201 3.60 168 3.99
                           178 4.17 130 4.20 142 4.20 190 4.20  98 4.21
 167  0.868  0.058  0.587- 230 3.62 170 3.63 194 3.63 146 3.64 228 3.64 168 3.65 144 3.65 192 3.65
                           165 4.09 169 4.13 131 4.17 179 4.18 191 4.21
 168  0.865  0.226  0.537- 177 3.57 165 3.57 201 3.57 129 3.58 203 3.64 167 3.65 131 3.65 179 3.65
                           166 3.99 180 4.15 132 4.19 170 4.19
 169  0.865  0.059  0.684- 194 3.60 170 3.61 146 3.61 230 3.61 148 3.63 196 3.64 172 3.64 232 3.64
                           167 4.13 181 4.15 171 4.16 133 4.18
 170  0.866  0.225  0.636- 169 3.61 181 3.61 205 3.62 133 3.62 167 3.63 203 3.63 131 3.63 179 3.63
                           172 4.16 182 4.17 134 4.18 168 4.19 194 4.22
 171  0.866  0.059  0.783- 232 3.61 148 3.61 172 3.62 196 3.62 234 3.62 174 3.63 150 3.63 198 3.63
                           169 4.16 183 4.17 135 4.18 173 4.19 195 4.21
 172  0.865  0.226  0.734- 207 3.60 135 3.60 183 3.61 171 3.62 181 3.64 133 3.64 169 3.64 205 3.64
                           174 4.13 184 4.15 170 4.16 136 4.18
 173  0.865  0.059  0.882- 152 3.56 176 3.57 236 3.57 200 3.58 198 3.64 174 3.64 234 3.64 150 3.65
                           175 3.99 185 4.15 137 4.19 171 4.19
 174  0.867  0.225  0.832- 207 3.62 135 3.63 171 3.63 183 3.64 173 3.64 209 3.64 137 3.65 185 3.65
                           176 4.09 172 4.13 138 4.18 186 4.18 198 4.21
 175  0.866  0.058  0.976- 253 2.17  82 2.54 125 2.93  89 3.21  67 3.54 236 3.57 200 3.59 152 3.59
                           176 3.60 173 3.99 187 4.18 139 4.20 151 4.20 199 4.21
 176  0.866  0.225  0.929- 137 3.55 185 3.56 173 3.57 209 3.57 211 3.58 139 3.58 187 3.58 175 3.60
                           174 4.09  89 4.11 188 4.17 140 4.18 200 4.21
 177  0.532  0.390  0.490- 156 3.55 180 3.56 168 3.57 144 3.57 142 3.58 166 3.58 154 3.59 178 3.60
                           179 4.09 165 4.17 153 4.18 189 4.21
 178  0.534  0.556  0.442-  63 2.44  28 2.57 213 3.58 201 3.58 189 3.59 177 3.60  75 3.79 180 3.99
                           166 4.17 154 4.20 202 4.20
 179  0.532  0.390  0.587- 146 3.63 158 3.63 182 3.63 170 3.63 180 3.64 168 3.65 144 3.65 156 3.65
                           177 4.09 181 4.13 155 4.18 167 4.18 191 4.21
 180  0.534  0.555  0.537- 201 3.56 177 3.56 213 3.57 189 3.58 179 3.64 203 3.65 191 3.65 215 3.65
                           178 3.99 168 4.15 156 4.19 182 4.20
 181  0.533  0.389  0.684- 158 3.60 146 3.61 170 3.61 182 3.62 172 3.64 160 3.64 184 3.64 148 3.64
                           179 4.13 169 4.15 183 4.16 157 4.18
 182  0.533  0.556  0.636- 217 3.60 205 3.60 181 3.62 215 3.62 193 3.62 179 3.63 191 3.63 203 3.63
                           184 4.16 170 4.17 158 4.19 180 4.20 194 4.21
 183  0.532  0.389  0.783- 184 3.61 172 3.61 148 3.61 160 3.62 150 3.62 186 3.62 162 3.63 174 3.64
                           181 4.16 171 4.17 159 4.18 185 4.19
 184  0.533  0.555  0.734- 195 3.60 183 3.61 207 3.61 219 3.62 205 3.63 193 3.64 181 3.64 217 3.64
                           186 4.13 172 4.15 182 4.16 160 4.18
 185  0.533  0.389  0.882- 152 3.56 176 3.56 188 3.57 164 3.58 186 3.64 162 3.64 174 3.65 150 3.65
                           187 3.99 173 4.15 161 4.19 183 4.19
 186  0.532  0.556  0.832- 183 3.62 219 3.63 207 3.63 195 3.63 185 3.64 221 3.65 209 3.65 197 3.65
                           188 4.09 184 4.13 162 4.17 174 4.18 198 4.22
 187  0.533  0.390  0.976-  53 2.22 245 2.78  91 2.98 188 3.57 176 3.58 164 3.59 152 3.60  82 3.70
                           185 3.99  55 4.01 175 4.18  89 4.19 163 4.20 211 4.20 199 4.21
 188  0.532  0.556  0.929- 197 3.55 209 3.57 221 3.57 185 3.57 187 3.57 199 3.58 211 3.59 223 3.60
                           186 4.09 176 4.17 164 4.18  65 4.21 200 4.21
 189  0.200  0.724  0.490- 192 3.56 156 3.56 154 3.58 180 3.58 228 3.58 190 3.59 178 3.59 226 3.59
                           191 4.09 225 4.18 213 4.18 177 4.21 165 4.21
 190  0.199  0.891  0.442-  16 2.80  75 2.89  87 2.98   4 3.09 165 3.58 129 3.58 189 3.59 213 3.59
                           192 3.97  76 4.12 214 4.20 226 4.20 166 4.20
 191  0.200  0.724  0.586- 182 3.63 230 3.63 158 3.64 194 3.64 180 3.65 228 3.65 192 3.65 156 3.65
                           189 4.09 193 4.16 227 4.17 215 4.17 179 4.21 167 4.21
 192  0.200  0.890  0.536- 213 3.55 165 3.55 189 3.56 129 3.56 215 3.65 167 3.65 191 3.65 131 3.65
                           190 3.97 216 4.19 228 4.19
 193  0.199  0.724  0.685- 194 3.61 158 3.61 230 3.62 160 3.62 182 3.62 196 3.63 232 3.64 184 3.64
                           195 4.13 191 4.16 229 4.18 217 4.18
 194  0.200  0.891  0.636- 217 3.60 169 3.60 193 3.61 133 3.61 167 3.63 215 3.63 191 3.64 131 3.64
                           196 4.13 230 4.18 218 4.18 182 4.21 170 4.22
 195  0.199  0.724  0.782- 232 3.60 184 3.60 196 3.61 160 3.61 234 3.63 186 3.63 198 3.64 162 3.64
                           193 4.13 219 4.18 231 4.19 171 4.21
 196  0.199  0.891  0.734- 135 3.61 195 3.61 219 3.62 171 3.62 133 3.62 193 3.63 217 3.63 169 3.64
                           194 4.13 198 4.16 220 4.18 232 4.19
 197  0.200  0.724  0.883- 188 3.55 236 3.56 200 3.56 164 3.56 186 3.65 162 3.65 234 3.65 198 3.65
                           199 3.96 221 4.18 233 4.19
 198  0.199  0.891  0.832- 219 3.63 171 3.63 173 3.64 195 3.64 135 3.64 221 3.64 137 3.65 197 3.65
                           200 4.09 196 4.16 222 4.17 234 4.18 174 4.21 186 4.22
 199  0.199  0.724  0.976-  55 2.39  65 3.10 125 3.18 164 3.58 200 3.58 236 3.58 188 3.58  67 3.75
                           197 3.96 235 4.19 223 4.20 175 4.21 187 4.21
 200  0.199  0.891  0.929- 197 3.56 137 3.56 221 3.58 173 3.58 199 3.58 139 3.58 175 3.59 223 3.59
                            67 4.01 198 4.09 224 4.18 236 4.18 188 4.21 176 4.21
 201  0.867  0.392  0.490- 132 3.55 180 3.56 168 3.57 204 3.57 202 3.58 130 3.58 178 3.58 166 3.60
                           203 4.09 213 4.18 153 4.18  99 4.18 129 4.21
 202  0.865  0.558  0.442- 111 2.03  28 3.20 201 3.58 213 3.58 153 3.59 225 3.60 204 3.99 214 4.17
                           154 4.20 178 4.20 130 4.21
 203  0.868  0.391  0.587- 206 3.63 134 3.63 170 3.63 182 3.63 204 3.64 168 3.64 180 3.65 132 3.65
                           201 4.09 205 4.14 155 4.17 215 4.18 131 4.21
 204  0.865  0.559  0.537- 213 3.57 225 3.57 201 3.57 153 3.58 227 3.64 203 3.64 155 3.64 215 3.64
                           202 3.99 216 4.15 156 4.19 206 4.19
 205  0.866  0.393  0.684- 134 3.60 182 3.60 206 3.61 170 3.62 136 3.63 184 3.63 208 3.64 172 3.64
                           203 4.14 217 4.15 207 4.16 157 4.18
 206  0.866  0.559  0.636- 205 3.61 217 3.61 229 3.61 157 3.62 203 3.63 227 3.63 155 3.63 215 3.63
                           208 4.16 218 4.16 158 4.18 204 4.19 134 4.22
 207  0.866  0.392  0.783- 172 3.60 184 3.61 174 3.62 136 3.62 208 3.62 210 3.63 138 3.63 186 3.63
                           205 4.16 219 4.17 159 4.19 209 4.19 135 4.21
 208  0.865  0.559  0.734- 159 3.60 231 3.60 219 3.61 207 3.62 217 3.64 157 3.64 205 3.64 229 3.64
                           210 4.13 220 4.15 206 4.16 160 4.18
 209  0.866  0.392  0.882- 212 3.57 188 3.57 176 3.57 140 3.57 138 3.64 210 3.64 174 3.64 186 3.65
                           211 3.99 221 4.16 161 4.19 207 4.19
 210  0.867  0.558  0.832- 231 3.62 159 3.63 207 3.63 219 3.64 209 3.64 233 3.65 221 3.65 161 3.65
                           212 4.09 208 4.13 162 4.18 222 4.18 138 4.21
 211  0.865  0.392  0.976- 101 2.31 257 2.52  91 2.84 176 3.58 188 3.59 140 3.59 212 3.60  34 3.76
                           209 3.99 103 4.04  89 4.11 223 4.18 163 4.20 187 4.20 139 4.21
 212  0.866  0.558  0.929- 161 3.55 209 3.57 221 3.57 233 3.57 235 3.58 163 3.58 223 3.58 211 3.60
                           210 4.09 224 4.17 164 4.18 140 4.21
 213  0.532  0.723  0.490- 192 3.55 216 3.56 204 3.57 180 3.57 178 3.58 202 3.58 190 3.59 214 3.60
                            75 4.00 215 4.09 201 4.18 189 4.18 129 4.21
 214  0.533  0.890  0.442-  32 2.44  39 2.67  75 3.45 141 3.58 129 3.59 225 3.59 213 3.60 216 3.99
                           202 4.17 190 4.20 226 4.20 130 4.22
 215  0.532  0.723  0.587- 182 3.62 218 3.63 194 3.63 206 3.63 216 3.64 204 3.64 180 3.65 192 3.65
                           213 4.09 217 4.14 191 4.17 203 4.18 131 4.21
 216  0.534  0.889  0.537- 213 3.56 225 3.56 141 3.57 129 3.58 215 3.64 131 3.65 143 3.65 227 3.65
                           214 3.99 204 4.15 192 4.19 218 4.20
 217  0.533  0.722  0.684- 194 3.60 182 3.60 206 3.61 218 3.62 196 3.63 208 3.64 220 3.64 184 3.64
                           215 4.14 205 4.15 219 4.16 193 4.18
 218  0.533  0.889  0.636- 145 3.61 229 3.61 217 3.62 133 3.62 143 3.62 215 3.63 131 3.63 227 3.63
                           220 4.16 206 4.16 194 4.18 216 4.20 134 4.22
 219  0.532  0.723  0.783- 220 3.61 208 3.61 196 3.62 184 3.62 222 3.62 186 3.63 198 3.63 210 3.64
                           217 4.16 207 4.17 195 4.18 221 4.19
 220  0.533  0.889  0.734- 135 3.61 219 3.61 231 3.61 147 3.62 229 3.63 133 3.64 217 3.64 145 3.64
                           222 4.13 208 4.15 218 4.16 196 4.18
 221  0.533  0.722  0.882- 212 3.57 188 3.57 224 3.57 200 3.58 198 3.64 222 3.64 186 3.65 210 3.65
                           223 3.99 209 4.16 197 4.18 219 4.19
 222  0.531  0.890  0.832- 219 3.62 147 3.63 135 3.63 231 3.63 221 3.64 149 3.64 233 3.65 137 3.65
                           224 4.09 220 4.13 198 4.17 210 4.18 138 4.21
 223  0.533  0.723  0.976- 249 2.21 103 2.46  65 2.96  77 3.25 224 3.58 212 3.58 200 3.59 188 3.60
                            67 3.64 221 3.99 211 4.18 199 4.20 235 4.20 139 4.21
 224  0.532  0.890  0.929- 137 3.55 149 3.56 233 3.56 221 3.57 223 3.58 139 3.58 235 3.59 151 3.60
                           222 4.09  77 4.13 212 4.17 200 4.18 140 4.21
 225  0.867  0.725  0.490- 156 3.55 216 3.56 228 3.57 204 3.57 226 3.57 154 3.58 214 3.59 202 3.60
                           227 4.09 141 4.17 189 4.18 153 4.21
 226  0.865  0.892  0.442- 123 2.40  20 2.63 225 3.57 141 3.58 189 3.59 165 3.60  87 3.75 228 3.99
                           142 4.18 190 4.20 214 4.20 154 4.20
 227  0.867  0.725  0.587- 230 3.62 206 3.63 158 3.63 218 3.63 228 3.64 204 3.64 216 3.65 156 3.65
                           225 4.09 229 4.13 191 4.17 143 4.18 155 4.21
 228  0.865  0.893  0.537- 141 3.57 225 3.57 165 3.57 189 3.58 227 3.64 167 3.64 143 3.64 191 3.65
                           226 3.99 144 4.15 192 4.19 230 4.19
 229  0.866  0.726  0.684- 158 3.60 230 3.61 218 3.61 206 3.61 220 3.63 160 3.63 232 3.64 208 3.64
                           227 4.13 145 4.15 231 4.16 193 4.18
 230  0.866  0.892  0.636- 229 3.61 145 3.61 169 3.61 193 3.62 227 3.62 167 3.62 191 3.63 143 3.63
                           232 4.16 146 4.16 194 4.18 228 4.19 158 4.22
 231  0.866  0.725  0.783- 208 3.60 220 3.61 232 3.62 160 3.62 210 3.62 234 3.63 162 3.63 222 3.63
                           229 4.16 147 4.17 195 4.19 233 4.19 159 4.21
 232  0.866  0.892  0.734- 195 3.60 171 3.61 147 3.61 231 3.62 145 3.64 193 3.64 229 3.64 169 3.64
                           234 4.13 148 4.15 230 4.16 196 4.19
 233  0.865  0.726  0.882- 224 3.56 236 3.57 212 3.57 164 3.58 162 3.64 234 3.64 210 3.65 222 3.65
                           235 3.99 149 4.15 197 4.19 231 4.19
 234  0.867  0.891  0.832- 171 3.62 231 3.63 195 3.63 147 3.64 233 3.64 173 3.64 149 3.65 197 3.65
                           236 4.09 232 4.13 150 4.18 198 4.18 162 4.20
 235  0.866  0.725  0.976- 113 2.18 265 2.73 115 3.03 212 3.58 164 3.59 224 3.59 236 3.60 103 3.76
                            55 3.91 233 3.99 151 4.18 199 4.19 223 4.20 163 4.21
 236  0.866  0.892  0.929- 197 3.56 149 3.56 233 3.57 173 3.57 175 3.57 151 3.58 199 3.58 235 3.60
                           234 4.09 152 4.17 125 4.17 200 4.18 164 4.22
 237  0.442  0.030  0.025-  41 2.23  77 2.23 115 2.23  34 2.23  33 2.24 151 2.55
 238  0.442  0.030  0.131-  78 2.23  44 2.23 118 2.23  36 2.23  35 2.26  33 2.26
 239  0.442  0.030  0.238-  79 2.23  47 2.23 121 2.23  38 2.23  37 2.26  35 2.26
 240  0.442  0.030  0.345-  39 2.22  80 2.23  50 2.23 124 2.23  40 2.23  37 2.26
 241  0.442  0.280  0.025-  82 2.23  43 2.23  53 2.23  41 2.23  42 2.24 163 2.99
 242  0.442  0.280  0.131-  84 2.23  46 2.23  56 2.23  44 2.23  45 2.26  42 2.26
 243  0.442  0.280  0.238-  49 2.23  86 2.23  47 2.23  59 2.23  48 2.26  45 2.26
 244  0.442  0.280  0.345-  51 2.22  88 2.23  52 2.23  50 2.23  62 2.23  48 2.26
 245  0.442  0.530  0.025-  65 2.23  53 2.23  91 2.23  55 2.23  54 2.24 187 2.78
 246  0.442  0.530  0.131-  56 2.23  68 2.23  94 2.23  58 2.23  57 2.26  54 2.26
 247  0.442  0.530  0.238-  59 2.23  71 2.23  61 2.23  97 2.23  60 2.26  57 2.26
 248  0.442  0.530  0.345-  63 2.22  62 2.23  74 2.23 100 2.23  64 2.23  60 2.26
 249  0.442  0.780  0.025- 223 2.21 103 2.23  67 2.23  77 2.23  65 2.23  66 2.24
 250  0.442  0.780  0.131- 106 2.23  70 2.23  78 2.23  68 2.23  69 2.26  66 2.26
 251  0.442  0.780  0.238-  73 2.23 109 2.23  71 2.23  79 2.23  72 2.26  69 2.26
 252  0.442  0.780  0.345-  75 2.22 112 2.23  76 2.23  74 2.23  80 2.23  72 2.26
 253  0.942  0.030  0.025- 175 2.17  89 2.23 125 2.23  67 2.23  82 2.23  81 2.24
 254  0.942  0.030  0.131- 126 2.23  92 2.23  70 2.23  84 2.23  83 2.26  81 2.26
 255  0.942  0.030  0.238- 127 2.23  95 2.23  86 2.23  73 2.23  85 2.26  83 2.26
 256  0.942  0.030  0.345-  87 2.22 128 2.23  98 2.23  76 2.23  88 2.23  85 2.26
 257  0.942  0.280  0.025-  34 2.23  91 2.23 101 2.23  89 2.23  90 2.24 211 2.52
 258  0.942  0.280  0.131-  36 2.23  94 2.23 104 2.23  92 2.23  93 2.26  90 2.26
 259  0.942  0.280  0.238-  97 2.23  38 2.23  95 2.23 107 2.23  96 2.26  93 2.26
 260  0.942  0.280  0.345-  99 2.22  40 2.23 100 2.23  98 2.23 110 2.23  96 2.26
 261  0.942  0.530  0.025- 113 2.23 101 2.23  43 2.23 103 2.23 102 2.24 163 3.08
 262  0.942  0.530  0.131- 104 2.23 116 2.23  46 2.23 106 2.23 105 2.26 102 2.26
 263  0.942  0.530  0.238- 107 2.23 119 2.23 109 2.23  49 2.23 108 2.26 105 2.26
 264  0.942  0.530  0.345- 111 2.22 110 2.23 122 2.23  52 2.23 112 2.23 108 2.26
 265  0.942  0.780  0.025-  55 2.23 115 2.23 125 2.23 113 2.23 114 2.24 235 2.73
 266  0.942  0.780  0.131-  58 2.23 118 2.23 126 2.23 116 2.23 117 2.26 114 2.26
 267  0.942  0.780  0.238-  61 2.23 121 2.23 119 2.23 127 2.23 120 2.26 117 2.26
 268  0.942  0.780  0.345- 123 2.22  64 2.23 124 2.23 122 2.23 128 2.23 120 2.26
 
 -----------------------------------------------------------------------------
|                                                                             |
|           W    W    AA    RRRRR   N    N  II  N    N   GGGG   !!!           |
|           W    W   A  A   R    R  NN   N  II  NN   N  G    G  !!!           |
|           W    W  A    A  R    R  N N  N  II  N N  N  G       !!!           |
|           W WW W  AAAAAA  RRRRR   N  N N  II  N  N N  G  GGG   !            |
|           WW  WW  A    A  R   R   N   NN  II  N   NN  G    G                |
|           W    W  A    A  R    R  N    N  II  N    N   GGGG   !!!           |
|                                                                             |
|     The distance between some ions is very small. Please check the          |
|     nearest-neighbor list in the OUTCAR file.                               |
|     I HOPE YOU KNOW WHAT YOU ARE DOING!                                     |
|                                                                             |
 -----------------------------------------------------------------------------

  LATTYP: Found a simple tetragonal cell.
 ALAT       =    12.5968630722
 C/A-ratio  =     3.3568217272
  
  Lattice vectors:
  
 A1 = (   8.9073273000,   8.9073273000,   0.0000000000)
 A2 = (  -8.9073273000,   8.9073273000,   0.0000000000)
 A3 = (   0.0000000000,   0.0000000000,  42.2854236549)


Analysis of symmetry for initial positions (statically):
=====================================================================
 Subroutine PRICEL returns:
 Original cell was already a primitive cell.
 

 Routine SETGRP: Setting up the symmetry group for a 
 simple tetragonal supercell.


 Subroutine GETGRP returns: Found  1 space group operations
 (whereof  1 operations were pure point group operations)
 out of a pool of 16 trial point group operations.


The static configuration has the point symmetry C_1 .


Analysis of symmetry for dynamics (positions and initial velocities):
=====================================================================
 Subroutine PRICEL returns:
 Original cell was already a primitive cell.
 

 Routine SETGRP: Setting up the symmetry group for a 
 simple tetragonal supercell.


 Subroutine GETGRP returns: Found  1 space group operations
 (whereof  1 operations were pure point group operations)
 out of a pool of 16 trial point group operations.


The dynamic configuration has the point symmetry C_1 .


 Subroutine INISYM returns: Found  1 space group operations
 (whereof  1 operations are pure point group operations),
 and found     1 'primitive' translations


----------------------------------------------------------------------------------------

                                     Primitive cell                                     

  volume of cell :    6709.8916

  direct lattice vectors                    reciprocal lattice vectors
    -8.907327300  8.907327300  0.000000000     0.000000000  0.112267122  0.000000000
   -17.814654600  0.000000000  0.000000000    -0.056133561 -0.056133561  0.000000000
     0.000000000  0.000000000 42.285423655     0.000000000  0.000000000  0.023648811

  length of vectors
    12.596863072 17.814654600 42.285423655     0.112267122  0.079384843  0.023648811

  position of ions in fractional coordinates (direct lattice)
     0.192228547  0.030444424  0.076969303
     0.192231507  0.030441964  0.184506390
     0.192232637  0.030442374  0.291235218
     0.192232227  0.030442774  0.396802095
     0.192251747  0.280423214  0.076999851
     0.192232127  0.280442744  0.184507506
     0.192232227  0.280442944  0.291210369
     0.192232307  0.280442754  0.396870508
     0.192230197  0.530442134  0.076969904
     0.192232207  0.530442454  0.184506410
     0.192232627  0.530442504  0.291235166
     0.192232217  0.530442814  0.396802115
     0.192251677  0.780422224  0.076999864
     0.192231457  0.780443944  0.184507265
     0.192238687  0.780437724  0.291204893
     0.192232227  0.780442794  0.396870462
     0.692230357  0.030442294  0.076969786
     0.692232477  0.030442634  0.184506364
     0.692232857  0.030442454  0.291235225
     0.692232187  0.030442784  0.396802095
     0.692251527  0.280422314  0.076999884
     0.692231487  0.280443924  0.184507317
     0.692238577  0.280437774  0.291204886
     0.692232207  0.280442824  0.396870469
     0.692228967  0.530444314  0.076969440
     0.692231847  0.530442074  0.184506449
     0.692232637  0.530442544  0.291235173
     0.692232097  0.530442824  0.396802102
     0.692252447  0.780422534  0.076999910
     0.692230777  0.780444624  0.184507728
     0.692238697  0.780437654  0.291204925
     0.692232167  0.780442874  0.396870469
     0.442229377  0.030441164  0.077762738
     0.192015867  0.155417024  0.023695892
     0.442237607  0.030438664  0.184585031
     0.192211057  0.156687064  0.131181766
     0.442233467  0.030442244  0.291298422
     0.192041677  0.155228474  0.237985860
     0.442235047  0.030440564  0.397220865
     0.192208787  0.154552454  0.344908477
     0.442096167  0.155415974  0.023658432
     0.442238617  0.280437424  0.077790368
     0.192486397  0.405444014  0.023699417
     0.444869637  0.154083144  0.131045242
     0.442233997  0.280441224  0.184554183
     0.192251187  0.404198064  0.131182393
     0.441797647  0.155631424  0.237949105
     0.442234397  0.280441294  0.291339511
     0.192428987  0.405649224  0.237984261
     0.440528277  0.156279424  0.344797317
     0.442234197  0.280440984  0.397288788
     0.192257927  0.406332674  0.344908314
     0.442381537  0.405451694  0.023648857
     0.442238097  0.530437874  0.077763730
     0.192017577  0.655416944  0.023695553
     0.439589177  0.406800494  0.131045092
     0.442222377  0.530447774  0.184586767
     0.192211467  0.656686794  0.131181975
     0.442668747  0.405254104  0.237949784
     0.442233257  0.530442454  0.291298814
     0.192040507  0.655228304  0.237986500
     0.443938807  0.404604994  0.344797474
     0.442235097  0.530440504  0.397221022
     0.192208767  0.654552374  0.344908568
     0.442097107  0.655415884  0.023658804
     0.442223547  0.780445844  0.077791641
     0.192486287  0.905444544  0.023699619
     0.444880147  0.654076294  0.131044472
     0.442240307  0.780439564  0.184554979
     0.192247387  0.904193614  0.131190819
     0.441798747  0.655631084  0.237949739
     0.442234187  0.780442204  0.291339452
     0.192429247  0.905649314  0.237984620
     0.440528427  0.656279374  0.344797402
     0.442234197  0.780441034  0.397288781
     0.192258117  0.906332874  0.344908379
     0.442380757  0.905451924  0.023648909
     0.439590487  0.906800124  0.131045470
     0.442668937  0.905254684  0.237948994
     0.443938727  0.904605124  0.344797330
     0.942237947  0.030438034  0.077763685
     0.692017667  0.155416834  0.023695540
     0.942222337  0.030447774  0.184586747
     0.692211967  0.156686514  0.131181975
     0.942233397  0.030442284  0.291298807
     0.692040747  0.155227764  0.237986631
     0.942235147  0.030440494  0.397221015
     0.692208777  0.154552314  0.344908575
     0.942097297  0.155415744  0.023658831
     0.942224457  0.280444894  0.077791654
     0.692486377  0.405444404  0.023699639
     0.944880237  0.154075944  0.131044504
     0.942241727  0.280438274  0.184554986
     0.692247637  0.404193074  0.131190957
     0.941799717  0.155630434  0.237949908
     0.942235187  0.280441264  0.291339576
     0.692429677  0.405649114  0.237984653
     0.940528467  0.156279354  0.344797389
     0.942234337  0.280440894  0.397288788
     0.692258187  0.406332764  0.344908444
     0.942380927  0.405451854  0.023648916
     0.942229567  0.530440984  0.077762934
     0.692015967  0.655417064  0.023695886
     0.939588157  0.406801144  0.131045007
     0.942237497  0.530438714  0.184585305
     0.692210837  0.656687334  0.131181590
     0.942669117  0.405254384  0.237949582
     0.942233237  0.530442434  0.291298598
     0.692041597  0.655227554  0.237986696
     0.943939087  0.404604924  0.344797389
     0.942235267  0.530440444  0.397220970
     0.692208857  0.654552324  0.344908575
     0.942096067  0.655415974  0.023658472
     0.942237667  0.780438364  0.077790310
     0.692486447  0.905444064  0.023699384
     0.944869337  0.654083544  0.131045072
     0.942232547  0.780442524  0.184554183
     0.692251207  0.904197104  0.131182778
     0.941799267  0.655630724  0.237949947
     0.942233417  0.780442224  0.291339459
     0.692424947  0.905657854  0.237985560
     0.940528207  0.656279424  0.344797402
     0.942234287  0.780440954  0.397288795
     0.692257957  0.906332904  0.344908314
     0.942381467  0.905451774  0.023648811
     0.939588187  0.906801174  0.131044935
     0.942668667  0.905254364  0.237949778
     0.943938537  0.904605134  0.344797435
     0.199548974  0.057327281  0.489627045
     0.199140424  0.224430551  0.442179915
     0.199632664  0.057252041  0.586374091
     0.199716354  0.223910941  0.535998328
     0.199215844  0.057525301  0.684754984
     0.199383734  0.224087411  0.636259979
     0.199130994  0.057659761  0.782326245
     0.199174554  0.224252391  0.733883829
     0.199259694  0.057488711  0.882497748
     0.199370454  0.224234921  0.832231824
     0.199135664  0.057614501  0.976201053
     0.199368454  0.224045841  0.928917597
     0.532171564  0.056417401  0.489842909
     0.533236694  0.223267081  0.442249227
     0.531676074  0.056576041  0.586624702
     0.533694694  0.222042581  0.536636340
     0.533027374  0.055583341  0.684403864
     0.532774094  0.222595161  0.635782546
     0.531973174  0.056425021  0.782746452
     0.533004394  0.222200721  0.734219794
     0.533444704  0.055485121  0.881913154
     0.531818764  0.222955071  0.831860764
     0.533560634  0.056532111  0.976312850
     0.532505674  0.222910961  0.928614040
     0.199540944  0.390656421  0.489616477
     0.199035614  0.557948631  0.442221049
     0.199481454  0.390703581  0.586398768
     0.199721134  0.557269521  0.535996395
     0.199279394  0.390858961  0.684705688
     0.199505954  0.557391081  0.636264989
     0.199154604  0.390958551  0.782342627
     0.199186064  0.557640301  0.733850583
     0.199386494  0.390737741  0.882457203
     0.199142294  0.557684021  0.832266704
     0.199439704  0.390707381  0.976224079
     0.199425314  0.557371001  0.928936161
     0.866846494  0.058430141  0.489832416
     0.865231084  0.225003851  0.442276193
     0.867505594  0.057959311  0.586619858
     0.865293774  0.225819481  0.536665646
     0.865436674  0.059286981  0.684380929
     0.866256364  0.225259631  0.635815120
     0.866041154  0.058539581  0.782847789
     0.865391094  0.226006001  0.734264096
     0.865406324  0.059108401  0.881913461
     0.867302324  0.224784921  0.831996500
     0.865551084  0.058036671  0.976351189
     0.866151864  0.225148201  0.928743182
     0.532146844  0.389748081  0.489849006
     0.533819394  0.556293401  0.442311820
     0.531722384  0.389903301  0.586629438
     0.534003804  0.555323621  0.536591125
     0.533173334  0.388828421  0.684330181
     0.533173754  0.556121731  0.635847237
     0.532316344  0.389460951  0.782824746
     0.533229434  0.555323211  0.734201512
     0.533467054  0.388929471  0.881938735
     0.531783444  0.556322091  0.831957191
     0.533392614  0.389967051  0.976312444
     0.532324034  0.556309021  0.928728525
     0.199505994  0.724075761  0.489644339
     0.198951124  0.891195241  0.442226010
     0.199780484  0.723823571  0.586391485
     0.199746954  0.890481631  0.536034219
     0.199251034  0.724114141  0.684732513
     0.199603554  0.890590791  0.636302249
     0.199291364  0.724309871  0.782320347
     0.199297724  0.890950341  0.733895367
     0.199586784  0.724113311  0.882530122
     0.199253784  0.890943711  0.832225006
     0.199094164  0.724166321  0.976217651
     0.199469834  0.890679811  0.928906241
     0.866945554  0.391673281  0.489859656
     0.865318514  0.558402641  0.442281469
     0.867514544  0.391461261  0.586591332
     0.865279284  0.559271341  0.536690231
     0.865709904  0.392594461  0.684386769
     0.866142804  0.558759141  0.635824244
     0.866050084  0.391640761  0.782876539
     0.865431744  0.559311571  0.734252691
     0.865595034  0.392294961  0.881973183
     0.867214844  0.558098531  0.831973043
     0.865449074  0.391618891  0.976310420
     0.866430264  0.558438841  0.928713121
     0.532323924  0.723135971  0.489888024
     0.533477184  0.889771231  0.442261188
     0.531840714  0.723158661  0.586621434
     0.533906094  0.888696351  0.536603957
     0.532858044  0.722405261  0.684430175
     0.532836354  0.889354911  0.635819383
     0.532335404  0.722818471  0.782821495
     0.533168714  0.888787931  0.734180667
     0.533412394  0.722330361  0.881908509
     0.531411094  0.889899181  0.831888270
     0.533480404  0.723196681  0.976331480
     0.532354914  0.889635181  0.928696946
     0.866872114  0.725110921  0.489853476
     0.865272594  0.891648661  0.442279553
     0.867443864  0.724792311  0.586625955
     0.865135654  0.892509751  0.536694047
     0.865591044  0.725993461  0.684409024
     0.866218934  0.892006661  0.635818106
     0.865927554  0.725178201  0.782843227
     0.865535644  0.892482911  0.734272789
     0.865261124  0.725812051  0.881951045
     0.867187234  0.891456661  0.831979620
     0.865558144  0.724781091  0.976346826
     0.866044474  0.892025591  0.928705474
     0.442265907  0.030421114  0.024762905
     0.442233287  0.030439884  0.131199781
     0.442233567  0.030442444  0.237964712
     0.442234387  0.030441294  0.344752893
     0.442266867  0.280421874  0.024769412
     0.442232177  0.280440954  0.131203117
     0.442233837  0.280441854  0.237958400
     0.442234327  0.280441624  0.344800157
     0.442266437  0.530420974  0.024763388
     0.442231447  0.530439934  0.131200852
     0.442233767  0.530441954  0.237965632
     0.442234287  0.530441354  0.344753069
     0.442265907  0.780422604  0.024770039
     0.442229377  0.780441674  0.131203965
     0.442234177  0.780442324  0.237958622
     0.442233927  0.780441894  0.344800137
     0.942266447  0.030420964  0.024763362
     0.942231517  0.030439854  0.131200839
     0.942233617  0.030442094  0.237965626
     0.942234317  0.030441304  0.344753063
     0.942265917  0.280422574  0.024770059
     0.942229617  0.280441274  0.131203992
     0.942234967  0.280441744  0.237958681
     0.942233937  0.280441614  0.344800202
     0.942265887  0.530421134  0.024763009
     0.942233077  0.530440074  0.131199886
     0.942234307  0.530441674  0.237965078
     0.942233877  0.530441784  0.344753089
     0.942266817  0.780421904  0.024769393
     0.942231777  0.780441364  0.131203071
     0.942233717  0.780442404  0.237958348
     0.942233857  0.780441894  0.344800144

  ion indices of the primitive-cell ions
   primitive index   ion index
                 1           1
                 2           2
                 3           3
                 4           4
                 5           5
                 6           6
                 7           7
                 8           8
                 9           9
                10          10
                11          11
                12          12
                13          13
                14          14
                15          15
                16          16
                17          17
                18          18
                19          19
                20          20
                21          21
                22          22
                23          23
                24          24
                25          25
                26          26
                27          27
                28          28
                29          29
                30          30
                31          31
                32          32
                33          33
                34          34
                35          35
                36          36
                37          37
                38          38
                39          39
                40          40
                41          41
                42          42
                43          43
                44          44
                45          45
                46          46
                47          47
                48          48
                49          49
                50          50
                51          51
                52          52
                53          53
                54          54
                55          55
                56          56
                57          57
                58          58
                59          59
                60          60
                61          61
                62          62
                63          63
                64          64
                65          65
                66          66
                67          67
                68          68
                69          69
                70          70
                71          71
                72          72
                73          73
                74          74
                75          75
                76          76
                77          77
                78          78
                79          79
                80          80
                81          81
                82          82
                83          83
                84          84
                85          85
                86          86
                87          87
                88          88
                89          89
                90          90
                91          91
                92          92
                93          93
                94          94
                95          95
                96          96
                97          97
                98          98
                99          99
               100         100
               101         101
               102         102
               103         103
               104         104
               105         105
               106         106
               107         107
               108         108
               109         109
               110         110
               111         111
               112         112
               113         113
               114         114
               115         115
               116         116
               117         117
               118         118
               119         119
               120         120
               121         121
               122         122
               123         123
               124         124
               125         125
               126         126
               127         127
               128         128
               129         129
               130         130
               131         131
               132         132
               133         133
               134         134
               135         135
               136         136
               137         137
               138         138
               139         139
               140         140
               141         141
               142         142
               143         143
               144         144
               145         145
               146         146
               147         147
               148         148
               149         149
               150         150
               151         151
               152         152
               153         153
               154         154
               155         155
               156         156
               157         157
               158         158
               159         159
               160         160
               161         161
               162         162
               163         163
               164         164
               165         165
               166         166
               167         167
               168         168
               169         169
               170         170
               171         171
               172         172
               173         173
               174         174
               175         175
               176         176
               177         177
               178         178
               179         179
               180         180
               181         181
               182         182
               183         183
               184         184
               185         185
               186         186
               187         187
               188         188
               189         189
               190         190
               191         191
               192         192
               193         193
               194         194
               195         195
               196         196
               197         197
               198         198
               199         199
               200         200
               201         201
               202         202
               203         203
               204         204
               205         205
               206         206
               207         207
               208         208
               209         209
               210         210
               211         211
               212         212
               213         213
               214         214
               215         215
               216         216
               217         217
               218         218
               219         219
               220         220
               221         221
               222         222
               223         223
               224         224
               225         225
               226         226
               227         227
               228         228
               229         229
               230         230
               231         231
               232         232
               233         233
               234         234
               235         235
               236         236
               237         237
               238         238
               239         239
               240         240
               241         241
               242         242
               243         243
               244         244
               245         245
               246         246
               247         247
               248         248
               249         249
               250         250
               251         251
               252         252
               253         253
               254         254
               255         255
               256         256
               257         257
               258         258
               259         259
               260         260
               261         261
               262         262
               263         263
               264         264
               265         265
               266         266
               267         267
               268         268

----------------------------------------------------------------------------------------

 
 -----------------------------------------------------------------------------
|                                                                             |
|           W    W    AA    RRRRR   N    N  II  N    N   GGGG   !!!           |
|           W    W   A  A   R    R  NN   N  II  NN   N  G    G  !!!           |
|           W    W  A    A  R    R  N N  N  II  N N  N  G       !!!           |
|           W WW W  AAAAAA  RRRRR   N  N N  II  N  N N  G  GGG   !            |
|           WW  WW  A    A  R   R   N   NN  II  N   NN  G    G                |
|           W    W  A    A  R    R  N    N  II  N    N   GGGG   !!!           |
|                                                                             |
|     The requested file  could not be found or opened for reading            |
|     k-point information. Automatic k-point generation is used as a          |
|     fallback, which may lead to unwanted results.                           |
|                                                                             |
 -----------------------------------------------------------------------------

 

Automatic generation of k-mesh.
 Grid dimensions derived from KSPACING:
 generate k-points for:    2    1    1

 Generating k-lattice:

  Cartesian coordinates                     Fractional coordinates (reciprocal lattice)
     0.000000000  0.056133561  0.000000000     0.500000000  0.000000000  0.000000000
    -0.056133561 -0.056133561  0.000000000     0.000000000  1.000000000  0.000000000
     0.000000000  0.000000000  0.023648811     0.000000000  0.000000000  1.000000000

  Length of vectors
     0.056133561  0.079384843  0.023648811

  Shift w.r.t. Gamma in fractional coordinates (k-lattice)
     0.000000000  0.000000000  0.000000000

 
 Subroutine IBZKPT returns following result:
 ===========================================
 
 Found      2 irreducible k-points:
 
 Following reciprocal coordinates:
            Coordinates               Weight
  0.000000  0.000000  0.000000      1.000000
  0.500000  0.000000  0.000000      1.000000
 
 Following cartesian coordinates:
            Coordinates               Weight
  0.000000  0.000000  0.000000      1.000000
  0.000000  0.056134  0.000000      1.000000
 


--------------------------------------------------------------------------------------------------------




 Dimension of arrays:
   k-points           NKPTS =      2   k-points in BZ     NKDIM =      2   number of bands    NBANDS=    448
   number of dos      NEDOS =    301   number of ions     NIONS =    268
   non local maximal  LDIM  =      4   non local SUM 2l+1 LMDIM =      8
   total plane-waves  NPLWV = ******
   max r-space proj   IRMAX =   2036   max aug-charges    IRDMAX=   8975
   dimension x,y,z NGX =    64 NGY =   90 NGZ =  210
   dimension x,y,z NGXF=   128 NGYF=  180 NGZF=  420
   support grid    NGXF=   128 NGYF=  180 NGZF=  420
   ions per type =              32 204  32
   NGX,Y,Z   is equivalent  to a cutoff of   8.45,  8.40,  8.26 a.u.
   NGXF,Y,Z  is equivalent  to a cutoff of  16.89, 16.80, 16.51 a.u.

 SYSTEM =  unknown system                          
 POSCAR =  Cl Na  O                                

 Startparameter for this run:
   NWRITE =      1    write-flag & timer
   PREC   = normal    normal or accurate (medium, high low for compatibility)
   ISTART =      0    job   : 0-new  1-cont  2-samecut
   ICHARG =      2    charge: 1-file 2-atom 10-const
   ISPIN  =      1    spin polarized calculation?
   LNONCOLLINEAR =      F non collinear calculations
   LSORBIT =      F    spin-orbit coupling
   INIWAV =      1    electr: 0-lowe 1-rand  2-diag
   LASPH  =      T    aspherical Exc in radial PAW
 Electronic Relaxation 1
   ENCUT  =  400.0 eV  29.40 Ry    5.42 a.u.  20.54 29.05 68.96*2*pi/ulx,y,z
   ENINI  =  400.0     initial cutoff
   ENAUG  =  605.4 eV  augmentation charge cutoff
   NELM   =    150;   NELMIN=  2; NELMDL=  0     # of ELM steps 
   EDIFF  = 0.1E-07   stopping-criterion for ELM
   LREAL  =      T    real-space projection
   NLSPLINE    = F    spline interpolate recip. space projectors
   LCOMPAT=      F    compatible to vasp.4.4
   GGA_COMPAT  = T    GGA compatible to vasp.4.4-vasp.4.6
   LMAXPAW     = -100 max onsite density
   LMAXMIX     =    6 max onsite mixed and CHGCAR
   VOSKOWN=      0    Vosko Wilk Nusair interpolation
   ROPT   =   -0.00050  -0.00050  -0.00050
 Ionic relaxation
   EDIFFG = -.1E-01   stopping-criterion for IOM
   NSW    =      0    number of steps for IOM
   NBLOCK =      1;   KBLOCK =      1    inner block; outer block 
   IBRION =     -1    ionic relax: 0-MD 1-quasi-New 2-CG
   NFREE  =      0    steps in history (QN), initial steepest desc. (CG)
   ISIF   =      3    stress and relaxation
   IWAVPR =     10    prediction:  0-non 1-charg 2-wave 3-comb
   ISYM   =      2    0-nonsym 1-usesym 2-fastsym
   LCORR  =      T    Harris-Foulkes like correction to forces

   POTIM  = 0.5000    time-step for ionic-motion
   TEIN   =    0.0    initial temperature
   TEBEG  =    0.0;   TEEND  =   0.0 temperature during run
   SMASS  =  -3.00    Nose mass-parameter (am)
   estimated Nose-frequenzy (Omega)   =  0.10E-29 period in steps = 0.13E+47 mass=  -0.363E-26a.u.
   SCALEE = 1.0000    scale energy and forces
   NPACO  =    256;   APACO  = 16.0  distance and # of slots for P.C.
   PSTRESS=    0.0 pullay stress

  Mass of Ions in am
   POMASS =  35.45 22.99 16.00
  Ionic Valenz
   ZVAL   =   7.00  1.00  6.00
  Atomic Wigner-Seitz radii
   RWIGS  =  -1.00 -1.00 -1.00
  virtual crystal weights 
   VCA    =   1.00  1.00  1.00
   NELECT =     620.0000    total number of electrons
   NUPDOWN=      -1.0000    fix difference up-down

 DOS related values:
   EMIN   =  10.00;   EMAX   =-10.00  energy-range for DOS
   EFERMI =   0.00
   ISMEAR =     0;   SIGMA  =   0.10  broadening in eV -4-tet -1-fermi 0-gaus

 Electronic relaxation 2 (details)
   IALGO  =     68    algorithm
   LDIAG  =      T    sub-space diagonalisation (order eigenvalues)
   LSUBROT=      F    optimize rotation matrix (better conditioning)
   TURBO    =      0    0=normal 1=particle mesh
   IRESTART =      0    0=no restart 2=restart with 2 vectors
   NREBOOT  =      0    no. of reboots
   NMIN     =      0    reboot dimension
   EREF     =   0.00    reference energy to select bands
   IMIX   =      4    mixing-type and parameters
     AMIX     =   0.40;   BMIX     =  1.00
     AMIX_MAG =   1.60;   BMIX_MAG =  1.00
     AMIN     =   0.01
     WC   =   100.;   INIMIX=   1;  MIXPRE=   1;  MAXMIX= -45

 Intra band minimization:
   WEIMIN = 0.0000     energy-eigenvalue tresh-hold
   EBREAK =  0.56E-11  absolut break condition
   DEPER  =   0.30     relativ break condition  

   TIME   =   0.40     timestep for ELM

  volume/ion in A,a.u.               =      25.04       168.96
  Fermi-wavevector in a.u.,A,eV,Ry     =   0.740117  1.398618  7.452901  0.547773
  Thomas-Fermi vector in A             =   1.834442
 
 Write flags
   LWAVE        =      F    write WAVECAR
   LDOWNSAMPLE  =      F    k-point downsampling of WAVECAR
   LCHARG       =      F    write CHGCAR
   LVTOT        =      F    write LOCPOT, total local potential
   LVHAR        =      F    write LOCPOT, Hartree potential only
   LELF         =      F    write electronic localiz. function (ELF)
   LORBIT       =      0    0 simple, 1 ext, 2 COOP (PROOUT), +10 PAW based schemes


 Dipole corrections
   LMONO  =      F    monopole corrections only (constant potential shift)
   LDIPOL =      F    correct potential (dipole corrections)
   IDIPOL =      0    1-x, 2-y, 3-z, 4-all directions 
   EPSILON=  1.0000000 bulk dielectric constant

 Exchange correlation treatment:
   GGA     =    PE    GGA type
   LEXCH   =     8    internal setting for exchange type
   VOSKOWN=      0    Vosko Wilk Nusair interpolation
   LHFCALC =     F    Hartree Fock is set to
   LHFONE  =     F    Hartree Fock one center treatment
   AEXX    =    0.0000 exact exchange contribution

 Linear response parameters
   LEPSILON=     F    determine dielectric tensor
   LRPA    =     F    only Hartree local field effects (RPA)
   LNABLA  =     F    use nabla operator in PAW spheres
   LVEL    =     F    velocity operator in full k-point grid
   LINTERFAST=   F  fast interpolation
   KINTER  =     0    interpolate to denser k-point grid
[...]
    -11.16257      3.91556      5.54130        -0.001525      0.009962     -0.010437
    -13.38876      3.93902      7.80533        -0.005538     -0.000589     -0.028875
    -13.41074      1.71209      5.54709        -0.004502      0.010611     -0.005556
    -11.16246      3.94300     10.06181         0.003739     -0.000628     -0.027388
    -13.38877      3.93912     12.31769        -0.006021     -0.001614     -0.010864
    -13.38323      1.71057     10.06336        -0.010206      0.013096     -0.026049
    -11.16221      3.95431     14.57991        -0.011826      0.005753     -0.071388
    -13.38875      3.93913     16.79666         0.560953     -0.308113     -0.659293
    -13.37269      1.71207     14.58460        -0.012334      0.009433     -0.064516
    -15.61391      3.93790      1.00042         0.142001      0.159776      0.237211
    -17.84240      3.93903      3.28945        -0.002101      0.010698      0.039270
    -17.84472      1.71454      1.00215         0.082675     -0.018022     -0.060518
    -15.61484      3.96269      5.54127         0.003835      0.004750     -0.007764
    -17.84244      3.93918      7.80399        -0.007196     -0.002340     -0.007410
    -17.82031      1.71241      5.54746         0.007524      0.017856     -0.009164
    -15.61509      3.93525     10.06181        -0.007190     -0.004896     -0.018573
    -17.84243      3.93912     12.31941         0.000578     -0.008928     -0.008563
    -17.84786      1.71403     10.06328        -0.004261     -0.031529     -0.017389
    -15.61532      3.92393     14.57990        -0.006167     -0.036602     -0.078501
    -17.84241      3.93912     16.79952         0.023931      0.323857     -0.105398
    -17.85851      1.71251     14.58460        -0.007588     -0.003268     -0.062027
    -20.07074      3.94043      1.00000        -0.031475      0.284083      0.148342
    -20.06991      3.91558      5.54131        -0.003790      0.017266     -0.002167
    -20.06980      3.94300     10.06177         0.005764     -0.006732     -0.021602
    -20.06954      3.95431     14.57990         0.021463     -0.028606     -0.063271
     -8.93506      8.39282      3.28827         0.000908     -0.002650      0.049305
     -8.93273      6.16403      1.00198        -0.035501     -0.520297      0.540801
     -8.93510      8.39268      7.80533        -0.005810     -0.000742     -0.026236
     -8.95707      6.16576      5.54709        -0.009472      0.007349     -0.005982
     -8.93510      8.39278     12.31769        -0.002413      0.003632      0.000053
     -8.92956      6.16423     10.06337        -0.006050      0.015368     -0.025433
     -8.93508      8.39280     16.79666         0.031933     -0.259824     -0.037508
     -8.91903      6.16573     14.58461         0.003850      0.056028     -0.095389
    -11.16025      8.39157      1.00042        -0.082045     -0.238331      0.111561
    -13.38873      8.39270      3.28945        -0.007720      0.003951      0.052777
    -13.39105      6.16820      1.00215         0.002176     -0.125943      0.408403
    -11.16117      8.41636      5.54127         0.001150     -0.003388     -0.004888
    -13.38877      8.39286      7.80399        -0.007628     -0.002669     -0.008910
    -13.36664      6.16608      5.54747         0.005159      0.017030     -0.018157
    -11.16142      8.38892     10.06181        -0.004982      0.000385     -0.016981
    -13.38876      8.39280     12.31942         0.008223     -0.000638     -0.014243
    -13.39420      6.16770     10.06328        -0.002727     -0.030951     -0.022889
    -11.16166      8.37759     14.57990         0.033903      0.016286     -0.070840
    -13.38875      8.39279     16.79952        -0.466222      0.081304     -0.396065
    -13.40485      6.16617     14.58460         0.010071      0.009056     -0.078575
    -15.61708      8.39410      1.00000        -0.536625      0.379823      1.030086
    -17.84237      8.39275      3.28824         0.000313      0.002786      0.066673
    -17.84004      6.16401      1.00199        -0.067290      0.611290      0.674828
    -15.61624      8.36922      5.54129        -0.005251      0.013463     -0.010476
    -17.84240      8.39282      7.80527        -0.005739     -0.000506     -0.031054
    -17.86441      6.16575      5.54707        -0.009384      0.013936     -0.007078
    -15.61613      8.39666     10.06180         0.006616     -0.004937     -0.026965
    -17.84243      8.39278     12.31768         0.000264     -0.007336     -0.021926
    -17.83689      6.16424     10.06337        -0.005778      0.010659     -0.026160
    -15.61587      8.40797     14.57990         0.040307      0.006000     -0.080206
    -17.84241      8.39280     16.79666        -0.205384      0.769714     -1.703665
    -17.82635      6.16573     14.58461         0.006453     -0.040106     -0.096022
    -20.06757      8.39156      1.00041         0.425694      0.556634      1.382841
    -22.29606      8.39282      3.28940         0.000170      0.005393      0.058259
    -22.29838      6.16820      1.00214         0.086927      0.108041      0.450808
    -20.06853      8.41626      5.54130         0.003988      0.002954     -0.014174
    -22.29609      8.39277      7.80395        -0.006932     -0.002721     -0.009835
    -22.27407      6.16611      5.54712         0.005968      0.018257     -0.018584
    -20.06875      8.38891     10.06181        -0.007235     -0.005011     -0.023794
    -22.29609      8.39278     12.31941        -0.004033     -0.002670     -0.019185
    -22.30164      6.16766     10.06332        -0.003286     -0.031682     -0.023112
    -20.06898      8.37759     14.57990        -0.003859     -0.010897     -0.081009
    -22.29608      8.39279     16.79952         0.631467      0.289597     -0.721092
    -22.31218      6.16617     14.58459         0.006359     -0.011639     -0.079922
    -24.52441      8.39410      1.00000         0.195854     -0.136665      0.206401
    -24.52357      8.36922      5.54129        -0.001199      0.009243     -0.004017
    -24.52345      8.39666     10.06181         0.003405     -0.001143     -0.022536
    -24.52320      8.40797     14.57991        -0.020073      0.027484     -0.073982
     -2.79871      1.77745     20.70409        -0.022831     -0.002787     -0.009039
     -5.77196      1.77381     18.69777         1.276108      0.061417      3.435818
     -2.79812      1.77819     24.79508         0.001462     -0.002629      0.006107
     -5.76784      1.77894     22.66492         0.003842      0.004745      0.036926
     -2.79927      1.77448     28.95515         0.001687     -0.000176     -0.012083
     -5.76802      1.77598     26.90452         0.005261      0.006786     -0.008232
     -2.80091      1.77372     33.08100         0.002761      0.001428      0.009441
     -5.76909      1.77411     31.03259         0.000636      0.004134      0.015317
     -2.79901      1.77487     37.31679         0.003157      0.002038     -0.012956
     -5.77053      1.77586     35.19128         0.004076     -0.001901     -0.009036
     -2.80015      1.77377     41.27908         0.097643      0.009158     -0.996560
     -5.76714      1.77584     39.27967        -0.035931      0.000853     -0.018678
     -5.74528      4.74023     20.71321         0.023947     -0.024022      0.028299
     -8.72714      4.74971     18.70070         0.243690      0.929123      1.921502
     -5.74370      4.73581     24.80567        -0.001942     -0.001744      0.005200
     -8.70941      4.75379     22.69189        -0.001994     -0.001000     -0.007871
     -5.73805      4.74785     28.94031        -0.005003     -0.001477     -0.001469
     -8.71105      4.74559     26.88433         0.006732     -0.002547      0.003371
     -5.74365      4.73846     33.09877         0.002638      0.003285     -0.002864
     -8.70607      4.74764     31.04680        -0.005882      0.000145      0.001542
     -5.74001      4.75157     37.29207        -0.005342     -0.003724     -0.010053
     -8.70895      4.73708     35.17558        -0.000226     -0.000499      0.001252
     -5.75970      4.75260     41.28380         0.597095     -0.160056     -0.964999
     -8.71428      4.74320     39.26684        -0.005806      0.006100      0.048913
     -8.73679      1.77738     20.70364        -0.011070     -0.003914      0.015397
    -11.71254      1.77288     18.69950        -1.510410      0.158946      6.112415
     -8.73710      1.77685     24.79612         0.000590     -0.003754      0.009362
    -11.70655      1.77898     22.66483         0.002525      0.004378      0.042539
     -8.73806      1.77505     28.95307         0.001207      0.001194     -0.011790
    -11.70679      1.77706     26.90473         0.002602      0.003808     -0.010405
     -8.73873      1.77394     33.08169         0.001170     -0.000608      0.011864
    -11.70838      1.77422     31.03118         0.000296      0.006984      0.016128
     -8.73686      1.77600     37.31508         0.000934      0.001892     -0.021616
    -11.70877      1.77383     35.19275        -0.002321      0.000176     -0.012467
     -8.73679      1.77647     41.28005         0.090555      0.096457     -1.630502
    -11.70572      1.77635     39.28046         0.022264     -0.000816     -0.019404
     -8.76220      7.72129     20.71277         0.004454      0.023090      0.059950
    -11.71526      7.70690     18.70184         0.382260      0.033315      1.082888
     -8.75968      7.72716     24.80547         0.005892     -0.000572      0.018503
    -11.73035      7.70745     22.69313        -0.006192      0.006026      0.003975
     -8.76490      7.70873     28.93934         0.006445      0.001715     -0.005880
    -11.72895      7.71603     26.88571        -0.014209     -0.003046      0.001084
     -8.75697      7.71411     33.10305        -0.011563     -0.002869     -0.011052
    -11.73454      7.70832     31.04867         0.010742     -0.000071      0.008976
     -8.76145      7.70846     37.29208         0.010016      0.002930     -0.009601
    -11.72981      7.72535     35.18132         0.004503     -0.002853     -0.006559
     -8.74365      7.70975     41.28542        -0.097084      0.465252     -0.931463
    -11.72604      7.71510     39.27230         0.022465     -0.021020     -0.001740
    -11.68323      4.74001     20.71347        -0.026523     -0.024750      0.014989
    -14.66508      4.75490     18.70334        -0.518476      0.237761      1.289656
    -11.68222      4.73623     24.80587         0.002571     -0.001721      0.002125
    -14.64945      4.75655     22.68998         0.001247     -0.000007      0.004183
    -11.67599      4.74915     28.93719        -0.003456      0.000142     -0.004233
    -14.65627      4.74915     26.88707         0.011178     -0.006031      0.002606
    -11.67963      4.74152     33.10208         0.006842     -0.001399     -0.000479
    -14.64254      4.74965     31.04602        -0.006691     -0.001095      0.003424
    -11.68041      4.75177     37.29315        -0.005267     -0.003232     -0.009763
    -14.64746      4.73677     35.17966         0.004054     -0.002694     -0.000330
    -11.69823      4.75110     41.28379        -0.488753      0.086109     -1.223735
    -14.65204      4.74158     39.27168        -0.022234      0.024307      0.010774
    -14.67622      1.77707     20.70482         0.030850     -0.002518     -0.003578
    -17.64846      1.77212     18.69971         0.000481     -0.062637      0.611394
    -14.67418      1.77951     24.79581        -0.001006     -0.000952      0.007582
    -17.64283      1.77921     22.66643         0.000200      0.002001      0.025517
    -14.67464      1.77479     28.95420         0.002267     -0.000523     -0.012113
    -17.64350      1.77793     26.90631         0.000586      0.001363     -0.016528
    -14.67848      1.77515     33.08075         0.000738      0.002446      0.009854
    -17.64718      1.77521     31.03308         0.001632      0.003185      0.015274
    -14.67761      1.77778     37.31816         0.000209     -0.001100     -0.016349
    -17.64667      1.77482     35.19099        -0.000578     -0.000760     -0.000596
    -14.67417      1.77340     41.27978        -0.171311      0.036247     -1.135398
    -17.64390      1.77674     39.27919         0.006366      0.001175     -0.014826
    -14.69969      7.72217     20.71392         0.041439      0.027773      0.025010
    -17.65543      7.70768     18.70206         0.236034     -0.855482      2.077470
    -14.70098      7.72724     24.80426         0.001890      0.000685      0.014339
    -17.67055      7.70733     22.69417        -0.002200      0.008034     -0.013142
    -14.70510      7.71116     28.93958         0.004385      0.001832     -0.006450
    -17.66912      7.71502     26.88610        -0.012048     -0.002482      0.001010
    -14.69114      7.71419     33.10427        -0.013326     -0.000967     -0.008618
    -17.67263      7.70868     31.04819         0.011104     -0.000374      0.007925
    -14.69874      7.71014     37.29461         0.008526     -0.002976     -0.003018
    -17.66690      7.72457     35.18033         0.001273     -0.001765     -0.000331
    -14.68539      7.70884     41.28370         0.676112      0.114403     -0.983639
    -17.66597      7.71758     39.27103         0.017260      0.002016      0.053584
    -17.62400      4.74158     20.71512        -0.011767     -0.026358      0.054360
    -20.60282      4.75186     18.70120         0.267745     -0.164341      1.274576
    -17.62010      4.73728     24.80554         0.000280     -0.001169      0.010631
    -20.58749      4.75568     22.69053        -0.002762     -0.001350      0.009420
    -17.61574      4.74634     28.94142        -0.002926      0.000922      0.000179
    -20.58970      4.74615     26.88589         0.005550     -0.003849      0.004152
    -17.61845      4.74169     33.10194         0.006894      0.000149     -0.002703
    -20.58256      4.74911     31.04514        -0.004870     -0.004463      0.001761
    -17.61934      4.75128     37.29187        -0.005493     -0.004025     -0.015773
    -20.58670      4.73345     35.17675        -0.003379     -0.001054     -0.001471
    -17.63538      4.75188     41.28459        -0.087485     -0.582104     -0.898921
    -20.59040      4.74186     39.27034        -0.003662      0.032567     -0.005178
    -20.63911      7.72151     20.71366        -0.011998      0.026487      0.011766
    -23.59168      7.70727     18.70198        -0.628796     -0.259082      1.239757
    -20.63853      7.72661     24.80573         0.007987      0.001256      0.012161
    -23.60580      7.70605     22.69434        -0.002409      0.006107     -0.000186
    -20.64343      7.71010     28.94053         0.005377      0.002121     -0.006032
    -23.60649      7.71570     26.88584        -0.010066     -0.004053      0.000621
    -20.63190      7.71310     33.10286        -0.011168      0.001863     -0.006422
    -23.60888      7.70961     31.04904         0.006577     -0.002240      0.010024
    -20.63726      7.70716     37.29367         0.008254     -0.000981      0.001198
    -23.60531      7.72432     35.18061         0.004536     -0.000184     -0.003528
    -20.62153      7.70981     41.28524        -0.567127     -0.086733     -1.258365
    -23.60527      7.71414     39.27070         0.008862     -0.014516      0.010536
     -4.48135      3.93941      1.04711        -0.305916      0.105130     -0.376317
     -4.48139      3.93912      5.54784         0.004063     -0.000785     -0.000948
     -4.48144      3.93912     10.06244        -0.003139      0.004093      0.027490
     -4.48143      3.93913     14.57802        -0.019601      0.019757      0.019463
     -8.93503      3.93942      1.04739        -0.058684     -0.345556     -0.196678
     -8.93507      3.93911      5.54798        -0.001413      0.003501      0.008576
     -8.93510      3.93912     10.06217        -0.002209     -0.001564      0.038918
     -8.93510      3.93913     14.58002         0.005995      0.012759      0.120398
    -13.38868      3.93941      1.04713         0.307316     -0.038169     -0.352604
    -13.38870      3.93910      5.54788        -0.004658      0.000934      0.001964
    -13.38876      3.93912     10.06248         0.003556      0.002570      0.029949
    -13.38876      3.93913     14.57803         0.002350      0.014093      0.048405
    -17.84237      3.93941      1.04741         0.031576      0.180892      0.016795
    -17.84238      3.93908      5.54802        -0.003138     -0.006641     -0.004102
    -17.84243      3.93912     10.06218        -0.001061      0.006022      0.026125
    -17.84243      3.93912     14.58002         0.006453      0.029470     -0.013508
     -8.93501      8.39308      1.04713         0.019825     -0.109412      0.165969
     -8.93504      8.39276      5.54788        -0.002274      0.007187     -0.004099
     -8.93510      8.39278     10.06248         0.001438     -0.000811      0.022268
     -8.93509      8.39279     14.57803         0.008078     -0.027600     -0.014929
    -13.38870      8.39307      1.04741        -0.345286     -0.086747     -0.356068
    -13.38871      8.39275      5.54802         0.004001      0.002097     -0.001084
    -13.38877      8.39280     10.06218        -0.005809      0.000871      0.030357
    -13.38876      8.39279     14.58002        -0.020379     -0.017442      0.016740
    -17.84234      8.39307      1.04711        -0.059842      0.299621     -0.166741
    -17.84239      8.39278      5.54784        -0.000606     -0.001532      0.010397
    -17.84242      8.39279     10.06245        -0.000163      0.005930      0.036776
    -17.84242      8.39279     14.57803         0.004223     -0.013884      0.136518
    -22.29603      8.39308      1.04738         0.354365      0.025984     -0.344984
    -22.29606      8.39277      5.54798        -0.006267      0.000284      0.001561
    -22.29610      8.39278     10.06217         0.001689      0.001901      0.033454
    -22.29609      8.39279     14.58002         0.003160     -0.015544      0.049744
 -----------------------------------------------------------------------------------
    total drift:                                0.031224      0.187272     -0.178072


--------------------------------------------------------------------------------------------------------



  FREE ENERGIE OF THE ION-ELECTRON SYSTEM (eV)
  ---------------------------------------------------
  free  energy   TOTEN  =      -705.42567949 eV

  energy  without entropy=     -705.11600374  energy(sigma->0) =     -705.27084162
 


--------------------------------------------------------------------------------------------------------


    POTLOK:  cpu time    0.2294: real time    0.2294


--------------------------------------------------------------------------------------------------------


     LOOP+:  cpu time  230.7608: real time  231.5282
    4ORBIT:  cpu time    0.0000: real time    0.0000

 total amount of memory used by VASP MPI-rank0    76672. kBytes
=======================================================================

   base      :      30000. kBytes
   nonlr-proj:      11000. kBytes
   fftplans  :       7368. kBytes
   grid      :      13498. kBytes
   one-center:         55. kBytes
   wavefun   :      14751. kBytes
 
  
  
 General timing and accounting informations for this job:
 ========================================================
  
                  Total CPU time used (sec):      239.824
                            User time (sec):      238.353
                          System time (sec):        1.471
                         Elapsed time (sec):      240.791
  
                   Maximum memory used (kb):      140340.
                   Average memory used (kb):          N/A
  
                          Minor page faults:       182054
                          Major page faults:            0
                 Voluntary context switches:          697
