<?xml version="1.0" encoding="ISO-8859-1"?>
<modeling>
 <generator>
  <i name="program" type="string">vasp </i>
  <i name="version" type="string">6.2.1  </i>
  <i name="subversion" type="string">16May21 (build Dec 23 2021 00:35:04) complex                          parallel </i>
  <i name="platform" type="string">LinuxIFC </i>
  <i name="date" type="string">2023 03 28 </i>
  <i name="time" type="string">00:24:12 </i>
 </generator>
 <incar>
  <i type="string" name="PREC">Normal</i>
  <i type="string" name="ALGO">Fast</i>
  <i type="int" name="ISPIN">     0</i>
  <i name="AMIN">      0.01000000</i>
  <i type="int" name="NELM">   150</i>
  <i type="int" name="IBRION">    -1</i>
  <i name="EDIFF">      0.00000001</i>
  <i name="EDIFFG">     -0.01000000</i>
  <i type="int" name="NSW">     0</i>
  <i type="int" name="ISIF">     3</i>
  <i name="ENCUT">    400.00000000</i>
  <i type="string" name="LREAL">AUTO</i>
  <i type="int" name="ISMEAR">     0</i>
  <i name="SIGMA">      0.10000000</i>
  <i name="KSPACING">      0.50000000</i>
  <i type="logical" name="KGAMMA"> T  </i>
  <i type="int" name="NWRITE">     1</i>
  <i type="int" name="LMAXMIX">     6</i>
  <i type="logical" name="LWAVE"> F  </i>
  <i type="logical" name="LCHARG"> F  </i>
  <i type="logical" name="LASPH"> T  </i>
  <i type="string" name="GGA">PE</i>
 </incar>
 <primitive_cell>
  <structure name="primitive_cell" >
   <crystal>
    <varray name="basis" >
     <v>      -8.90732730       8.90732730       0.00000000 </v>
     <v>     -17.81465460       0.00000000       0.00000000 </v>
     <v>       0.00000000       0.00000000      42.28542365 </v>
    </varray>
    <i name="volume">   6709.89158822 </i>
    <varray name="rec_basis" >
     <v>       0.00000000       0.11226712       0.00000000 </v>
     <v>      -0.05613356      -0.05613356       0.00000000 </v>
     <v>       0.00000000       0.00000000       0.02364881 </v>
    </varray>
   </crystal>
   <varray name="positions" >
    <v>       0.19222855       0.03044442       0.07696930 </v>
    <v>       0.19223151       0.03044196       0.18450639 </v>
    <v>       0.19223264       0.03044237       0.29123522 </v>
    <v>       0.19223223       0.03044277       0.39680210 </v>
    <v>       0.19225175       0.28042321       0.07699985 </v>
    <v>       0.19223213       0.28044274       0.18450751 </v>
    <v>       0.19223223       0.28044294       0.29121037 </v>
    <v>       0.19223231       0.28044275       0.39687051 </v>
    <v>       0.19223020       0.53044213       0.07696990 </v>
    <v>       0.19223221       0.53044245       0.18450641 </v>
    <v>       0.19223263       0.53044250       0.29123517 </v>
    <v>       0.19223222       0.53044281       0.39680211 </v>
    <v>       0.19225168       0.78042222       0.07699986 </v>
    <v>       0.19223146       0.78044394       0.18450726 </v>
    <v>       0.19223869       0.78043772       0.29120489 </v>
    <v>       0.19223223       0.78044279       0.39687046 </v>
    <v>       0.69223036       0.03044229       0.07696979 </v>
    <v>       0.69223248       0.03044263       0.18450636 </v>
    <v>       0.69223286       0.03044245       0.29123522 </v>
    <v>       0.69223219       0.03044278       0.39680210 </v>
    <v>       0.69225153       0.28042231       0.07699988 </v>
    <v>       0.69223149       0.28044392       0.18450732 </v>
    <v>       0.69223858       0.28043777       0.29120489 </v>
    <v>       0.69223221       0.28044282       0.39687047 </v>
    <v>       0.69222897       0.53044431       0.07696944 </v>
    <v>       0.69223185       0.53044207       0.18450645 </v>
    <v>       0.69223264       0.53044254       0.29123517 </v>
    <v>       0.69223210       0.53044282       0.39680210 </v>
    <v>       0.69225245       0.78042253       0.07699991 </v>
    <v>       0.69223078       0.78044462       0.18450773 </v>
    <v>       0.69223870       0.78043765       0.29120493 </v>
    <v>       0.69223217       0.78044287       0.39687047 </v>
    <v>       0.44222938       0.03044116       0.07776274 </v>
    <v>       0.19201587       0.15541702       0.02369589 </v>
    <v>       0.44223761       0.03043866       0.18458503 </v>
    <v>       0.19221106       0.15668706       0.13118177 </v>
    <v>       0.44223347       0.03044224       0.29129842 </v>
    <v>       0.19204168       0.15522847       0.23798586 </v>
    <v>       0.44223505       0.03044056       0.39722087 </v>
    <v>       0.19220879       0.15455245       0.34490848 </v>
    <v>       0.44209617       0.15541597       0.02365843 </v>
    <v>       0.44223862       0.28043742       0.07779037 </v>
    <v>       0.19248640       0.40544401       0.02369942 </v>
    <v>       0.44486964       0.15408314       0.13104524 </v>
    <v>       0.44223400       0.28044122       0.18455418 </v>
    <v>       0.19225119       0.40419806       0.13118239 </v>
    <v>       0.44179765       0.15563142       0.23794911 </v>
    <v>       0.44223440       0.28044129       0.29133951 </v>
    <v>       0.19242899       0.40564922       0.23798426 </v>
    <v>       0.44052828       0.15627942       0.34479732 </v>
    <v>       0.44223420       0.28044098       0.39728879 </v>
    <v>       0.19225793       0.40633267       0.34490831 </v>
    <v>       0.44238154       0.40545169       0.02364886 </v>
    <v>       0.44223810       0.53043787       0.07776373 </v>
    <v>       0.19201758       0.65541694       0.02369555 </v>
    <v>       0.43958918       0.40680049       0.13104509 </v>
    <v>       0.44222238       0.53044777       0.18458677 </v>
    <v>       0.19221147       0.65668679       0.13118198 </v>
    <v>       0.44266875       0.40525410       0.23794978 </v>
    <v>       0.44223326       0.53044245       0.29129881 </v>
    <v>       0.19204051       0.65522830       0.23798650 </v>
    <v>       0.44393881       0.40460499       0.34479747 </v>
    <v>       0.44223510       0.53044050       0.39722102 </v>
    <v>       0.19220877       0.65455237       0.34490857 </v>
    <v>       0.44209711       0.65541588       0.02365880 </v>
    <v>       0.44222355       0.78044584       0.07779164 </v>
    <v>       0.19248629       0.90544454       0.02369962 </v>
    <v>       0.44488015       0.65407629       0.13104447 </v>
    <v>       0.44224031       0.78043956       0.18455498 </v>
    <v>       0.19224739       0.90419361       0.13119082 </v>
    <v>       0.44179875       0.65563108       0.23794974 </v>
    <v>       0.44223419       0.78044220       0.29133945 </v>
    <v>       0.19242925       0.90564931       0.23798462 </v>
    <v>       0.44052843       0.65627937       0.34479740 </v>
    <v>       0.44223420       0.78044103       0.39728878 </v>
    <v>       0.19225812       0.90633287       0.34490838 </v>
    <v>       0.44238076       0.90545192       0.02364891 </v>
    <v>       0.43959049       0.90680012       0.13104547 </v>
    <v>       0.44266894       0.90525468       0.23794899 </v>
    <v>       0.44393873       0.90460512       0.34479733 </v>
    <v>       0.94223795       0.03043803       0.07776368 </v>
    <v>       0.69201767       0.15541683       0.02369554 </v>
    <v>       0.94222234       0.03044777       0.18458675 </v>
    <v>       0.69221197       0.15668651       0.13118198 </v>
    <v>       0.94223340       0.03044228       0.29129881 </v>
    <v>       0.69204075       0.15522776       0.23798663 </v>
    <v>       0.94223515       0.03044049       0.39722102 </v>
    <v>       0.69220878       0.15455231       0.34490857 </v>
    <v>       0.94209730       0.15541574       0.02365883 </v>
    <v>       0.94222446       0.28044489       0.07779165 </v>
    <v>       0.69248638       0.40544440       0.02369964 </v>
    <v>       0.94488024       0.15407594       0.13104450 </v>
    <v>       0.94224173       0.28043827       0.18455499 </v>
    <v>       0.69224764       0.40419307       0.13119096 </v>
    <v>       0.94179972       0.15563043       0.23794991 </v>
    <v>       0.94223519       0.28044126       0.29133958 </v>
    <v>       0.69242968       0.40564911       0.23798465 </v>
    <v>       0.94052847       0.15627935       0.34479739 </v>
    <v>       0.94223434       0.28044089       0.39728879 </v>
    <v>       0.69225819       0.40633276       0.34490844 </v>
    <v>       0.94238093       0.40545185       0.02364892 </v>
    <v>       0.94222957       0.53044098       0.07776293 </v>
    <v>       0.69201597       0.65541706       0.02369589 </v>
    <v>       0.93958816       0.40680114       0.13104501 </v>
    <v>       0.94223750       0.53043871       0.18458530 </v>
    <v>       0.69221084       0.65668733       0.13118159 </v>
    <v>       0.94266912       0.40525438       0.23794958 </v>
    <v>       0.94223324       0.53044243       0.29129860 </v>
    <v>       0.69204160       0.65522755       0.23798670 </v>
    <v>       0.94393909       0.40460492       0.34479739 </v>
    <v>       0.94223527       0.53044044       0.39722097 </v>
    <v>       0.69220886       0.65455232       0.34490857 </v>
    <v>       0.94209607       0.65541597       0.02365847 </v>
    <v>       0.94223767       0.78043836       0.07779031 </v>
    <v>       0.69248645       0.90544406       0.02369938 </v>
    <v>       0.94486934       0.65408354       0.13104507 </v>
    <v>       0.94223255       0.78044252       0.18455418 </v>
    <v>       0.69225121       0.90419710       0.13118278 </v>
    <v>       0.94179927       0.65563072       0.23794995 </v>
    <v>       0.94223342       0.78044222       0.29133946 </v>
    <v>       0.69242495       0.90565785       0.23798556 </v>
    <v>       0.94052821       0.65627942       0.34479740 </v>
    <v>       0.94223429       0.78044095       0.39728879 </v>
    <v>       0.69225796       0.90633290       0.34490831 </v>
    <v>       0.94238147       0.90545177       0.02364881 </v>
    <v>       0.93958819       0.90680117       0.13104494 </v>
    <v>       0.94266867       0.90525436       0.23794978 </v>
    <v>       0.94393854       0.90460513       0.34479743 </v>
    <v>       0.19954897       0.05732728       0.48962704 </v>
    <v>       0.19914042       0.22443055       0.44217992 </v>
    <v>       0.19963266       0.05725204       0.58637409 </v>
    <v>       0.19971635       0.22391094       0.53599833 </v>
    <v>       0.19921584       0.05752530       0.68475498 </v>
    <v>       0.19938373       0.22408741       0.63625998 </v>
    <v>       0.19913099       0.05765976       0.78232624 </v>
    <v>       0.19917455       0.22425239       0.73388383 </v>
    <v>       0.19925969       0.05748871       0.88249775 </v>
    <v>       0.19937045       0.22423492       0.83223182 </v>
    <v>       0.19913566       0.05761450       0.97620105 </v>
    <v>       0.19936845       0.22404584       0.92891760 </v>
    <v>       0.53217156       0.05641740       0.48984291 </v>
    <v>       0.53323669       0.22326708       0.44224923 </v>
    <v>       0.53167607       0.05657604       0.58662470 </v>
    <v>       0.53369469       0.22204258       0.53663634 </v>
    <v>       0.53302737       0.05558334       0.68440386 </v>
    <v>       0.53277409       0.22259516       0.63578255 </v>
    <v>       0.53197317       0.05642502       0.78274645 </v>
    <v>       0.53300439       0.22220072       0.73421979 </v>
    <v>       0.53344470       0.05548512       0.88191315 </v>
    <v>       0.53181876       0.22295507       0.83186076 </v>
    <v>       0.53356063       0.05653211       0.97631285 </v>
    <v>       0.53250567       0.22291096       0.92861404 </v>
    <v>       0.19954094       0.39065642       0.48961648 </v>
    <v>       0.19903561       0.55794863       0.44222105 </v>
    <v>       0.19948145       0.39070358       0.58639877 </v>
    <v>       0.19972113       0.55726952       0.53599639 </v>
    <v>       0.19927939       0.39085896       0.68470569 </v>
    <v>       0.19950595       0.55739108       0.63626499 </v>
    <v>       0.19915460       0.39095855       0.78234263 </v>
    <v>       0.19918606       0.55764030       0.73385058 </v>
    <v>       0.19938649       0.39073774       0.88245720 </v>
    <v>       0.19914229       0.55768402       0.83226670 </v>
    <v>       0.19943970       0.39070738       0.97622408 </v>
    <v>       0.19942531       0.55737100       0.92893616 </v>
    <v>       0.86684649       0.05843014       0.48983242 </v>
    <v>       0.86523108       0.22500385       0.44227619 </v>
    <v>       0.86750559       0.05795931       0.58661986 </v>
    <v>       0.86529377       0.22581948       0.53666565 </v>
    <v>       0.86543667       0.05928698       0.68438093 </v>
    <v>       0.86625636       0.22525963       0.63581512 </v>
    <v>       0.86604115       0.05853958       0.78284779 </v>
    <v>       0.86539109       0.22600600       0.73426410 </v>
    <v>       0.86540632       0.05910840       0.88191346 </v>
    <v>       0.86730232       0.22478492       0.83199650 </v>
    <v>       0.86555108       0.05803667       0.97635119 </v>
    <v>       0.86615186       0.22514820       0.92874318 </v>
    <v>       0.53214684       0.38974808       0.48984901 </v>
    <v>       0.53381939       0.55629340       0.44231182 </v>
    <v>       0.53172238       0.38990330       0.58662944 </v>
    <v>       0.53400380       0.55532362       0.53659112 </v>
    <v>       0.53317333       0.38882842       0.68433018 </v>
    <v>       0.53317375       0.55612173       0.63584724 </v>
    <v>       0.53231634       0.38946095       0.78282475 </v>
    <v>       0.53322943       0.55532321       0.73420151 </v>
    <v>       0.53346705       0.38892947       0.88193874 </v>
    <v>       0.53178344       0.55632209       0.83195719 </v>
    <v>       0.53339261       0.38996705       0.97631244 </v>
    <v>       0.53232403       0.55630902       0.92872852 </v>
    <v>       0.19950599       0.72407576       0.48964434 </v>
    <v>       0.19895112       0.89119524       0.44222601 </v>
    <v>       0.19978048       0.72382357       0.58639149 </v>
    <v>       0.19974695       0.89048163       0.53603422 </v>
    <v>       0.19925103       0.72411414       0.68473251 </v>
    <v>       0.19960355       0.89059079       0.63630225 </v>
    <v>       0.19929136       0.72430987       0.78232035 </v>
    <v>       0.19929772       0.89095034       0.73389537 </v>
    <v>       0.19958678       0.72411331       0.88253012 </v>
    <v>       0.19925378       0.89094371       0.83222501 </v>
    <v>       0.19909416       0.72416632       0.97621765 </v>
    <v>       0.19946983       0.89067981       0.92890624 </v>
    <v>       0.86694555       0.39167328       0.48985966 </v>
    <v>       0.86531851       0.55840264       0.44228147 </v>
    <v>       0.86751454       0.39146126       0.58659133 </v>
    <v>       0.86527928       0.55927134       0.53669023 </v>
    <v>       0.86570990       0.39259446       0.68438677 </v>
    <v>       0.86614280       0.55875914       0.63582424 </v>
    <v>       0.86605008       0.39164076       0.78287654 </v>
    <v>       0.86543174       0.55931157       0.73425269 </v>
    <v>       0.86559503       0.39229496       0.88197318 </v>
    <v>       0.86721484       0.55809853       0.83197304 </v>
    <v>       0.86544907       0.39161889       0.97631042 </v>
    <v>       0.86643026       0.55843884       0.92871312 </v>
    <v>       0.53232392       0.72313597       0.48988802 </v>
    <v>       0.53347718       0.88977123       0.44226119 </v>
    <v>       0.53184071       0.72315866       0.58662143 </v>
    <v>       0.53390609       0.88869635       0.53660396 </v>
    <v>       0.53285804       0.72240526       0.68443018 </v>
    <v>       0.53283635       0.88935491       0.63581938 </v>
    <v>       0.53233540       0.72281847       0.78282149 </v>
    <v>       0.53316871       0.88878793       0.73418067 </v>
    <v>       0.53341239       0.72233036       0.88190851 </v>
    <v>       0.53141109       0.88989918       0.83188827 </v>
    <v>       0.53348040       0.72319668       0.97633148 </v>
    <v>       0.53235491       0.88963518       0.92869695 </v>
    <v>       0.86687211       0.72511092       0.48985348 </v>
    <v>       0.86527259       0.89164866       0.44227955 </v>
    <v>       0.86744386       0.72479231       0.58662595 </v>
    <v>       0.86513565       0.89250975       0.53669405 </v>
    <v>       0.86559104       0.72599346       0.68440902 </v>
    <v>       0.86621893       0.89200666       0.63581811 </v>
    <v>       0.86592755       0.72517820       0.78284323 </v>
    <v>       0.86553564       0.89248291       0.73427279 </v>
    <v>       0.86526112       0.72581205       0.88195104 </v>
    <v>       0.86718723       0.89145666       0.83197962 </v>
    <v>       0.86555814       0.72478109       0.97634683 </v>
    <v>       0.86604447       0.89202559       0.92870547 </v>
    <v>       0.44226591       0.03042111       0.02476290 </v>
    <v>       0.44223329       0.03043988       0.13119978 </v>
    <v>       0.44223357       0.03044244       0.23796471 </v>
    <v>       0.44223439       0.03044129       0.34475289 </v>
    <v>       0.44226687       0.28042187       0.02476941 </v>
    <v>       0.44223218       0.28044095       0.13120312 </v>
    <v>       0.44223384       0.28044185       0.23795840 </v>
    <v>       0.44223433       0.28044162       0.34480016 </v>
    <v>       0.44226644       0.53042097       0.02476339 </v>
    <v>       0.44223145       0.53043993       0.13120085 </v>
    <v>       0.44223377       0.53044195       0.23796563 </v>
    <v>       0.44223429       0.53044135       0.34475307 </v>
    <v>       0.44226591       0.78042260       0.02477004 </v>
    <v>       0.44222938       0.78044167       0.13120397 </v>
    <v>       0.44223418       0.78044232       0.23795862 </v>
    <v>       0.44223393       0.78044189       0.34480014 </v>
    <v>       0.94226645       0.03042096       0.02476336 </v>
    <v>       0.94223152       0.03043985       0.13120084 </v>
    <v>       0.94223362       0.03044209       0.23796563 </v>
    <v>       0.94223432       0.03044130       0.34475306 </v>
    <v>       0.94226592       0.28042257       0.02477006 </v>
    <v>       0.94222962       0.28044127       0.13120399 </v>
    <v>       0.94223497       0.28044174       0.23795868 </v>
    <v>       0.94223394       0.28044161       0.34480020 </v>
    <v>       0.94226589       0.53042113       0.02476301 </v>
    <v>       0.94223308       0.53044007       0.13119989 </v>
    <v>       0.94223431       0.53044167       0.23796508 </v>
    <v>       0.94223388       0.53044178       0.34475309 </v>
    <v>       0.94226682       0.78042190       0.02476939 </v>
    <v>       0.94223178       0.78044136       0.13120307 </v>
    <v>       0.94223372       0.78044240       0.23795835 </v>
    <v>       0.94223386       0.78044189       0.34480014 </v>
   </varray>
  </structure>
  <varray name="primitive_index" >
   <v type="int" >        1 </v>
   <v type="int" >        2 </v>
   <v type="int" >        3 </v>
   <v type="int" >        4 </v>
   <v type="int" >        5 </v>
   <v type="int" >        6 </v>
   <v type="int" >        7 </v>
   <v type="int" >        8 </v>
   <v type="int" >        9 </v>
   <v type="int" >       10 </v>
   <v type="int" >       11 </v>
   <v type="int" >       12 </v>
   <v type="int" >       13 </v>
   <v type="int" >       14 </v>
   <v type="int" >       15 </v>
   <v type="int" >       16 </v>
   <v type="int" >       17 </v>
   <v type="int" >       18 </v>
   <v type="int" >       19 </v>
   <v type="int" >       20 </v>
   <v type="int" >       21 </v>
   <v type="int" >       22 </v>
   <v type="int" >       23 </v>
   <v type="int" >       24 </v>
   <v type="int" >       25 </v>
   <v type="int" >       26 </v>
   <v type="int" >       27 </v>
   <v type="int" >       28 </v>
   <v type="int" >       29 </v>
   <v type="int" >       30 </v>
   <v type="int" >       31 </v>
   <v type="int" >       32 </v>
   <v type="int" >       33 </v>
   <v type="int" >       34 </v>
   <v type="int" >       35 </v>
   <v type="int" >       36 </v>
   <v type="int" >       37 </v>
   <v type="int" >       38 </v>
   <v type="int" >       39 </v>
   <v type="int" >       40 </v>
   <v type="int" >       41 </v>
   <v type="int" >       42 </v>
   <v type="int" >       43 </v>
   <v type="int" >       44 </v>
   <v type="int" >       45 </v>
   <v type="int" >       46 </v>
   <v type="int" >       47 </v>
   <v type="int" >       48 </v>
   <v type="int" >       49 </v>
   <v type="int" >       50 </v>
   <v type="int" >       51 </v>
   <v type="int" >       52 </v>
   <v type="int" >       53 </v>
   <v type="int" >       54 </v>
   <v type="int" >       55 </v>
   <v type="int" >       56 </v>
   <v type="int" >       57 </v>
   <v type="int" >       58 </v>
   <v type="int" >       59 </v>
   <v type="int" >       60 </v>
   <v type="int" >       61 </v>
   <v type="int" >       62 </v>
   <v type="int" >       63 </v>
   <v type="int" >       64 </v>
   <v type="int" >       65 </v>
   <v type="int" >       66 </v>
   <v type="int" >       67 </v>
   <v type="int" >       68 </v>
   <v type="int" >       69 </v>
   <v type="int" >       70 </v>
   <v type="int" >       71 </v>
   <v type="int" >       72 </v>
   <v type="int" >       73 </v>
   <v type="int" >       74 </v>
   <v type="int" >       75 </v>
   <v type="int" >       76 </v>
   <v type="int" >       77 </v>
   <v type="int" >       78 </v>
   <v type="int" >       79 </v>
   <v type="int" >       80 </v>
   <v type="int" >       81 </v>
   <v type="int" >       82 </v>
   <v type="int" >       83 </v>
   <v type="int" >       84 </v>
   <v type="int" >       85 </v>
   <v type="int" >       86 </v>
   <v type="int" >       87 </v>
   <v type="int" >       88 </v>
   <v type="int" >       89 </v>
   <v type="int" >       90 </v>
   <v type="int" >       91 </v>
   <v type="int" >       92 </v>
   <v type="int" >       93 </v>
   <v type="int" >       94 </v>
   <v type="int" >       95 </v>
   <v type="int" >       96 </v>
   <v type="int" >       97 </v>
   <v type="int" >       98 </v>
   <v type="int" >       99 </v>
   <v type="int" >      100 </v>
   <v type="int" >      101 </v>
   <v type="int" >      102 </v>
   <v type="int" >      103 </v>
   <v type="int" >      104 </v>
   <v type="int" >      105 </v>
   <v type="int" >      106 </v>
   <v type="int" >      107 </v>
   <v type="int" >      108 </v>
   <v type="int" >      109 </v>
   <v type="int" >      110 </v>
   <v type="int" >      111 </v>
   <v type="int" >      112 </v>
   <v type="int" >      113 </v>
   <v type="int" >      114 </v>
   <v type="int" >      115 </v>
   <v type="int" >      116 </v>
   <v type="int" >      117 </v>
   <v type="int" >      118 </v>
   <v type="int" >      119 </v>
   <v type="int" >      120 </v>
   <v type="int" >      121 </v>
   <v type="int" >      122 </v>
   <v type="int" >      123 </v>
   <v type="int" >      124 </v>
   <v type="int" >      125 </v>
   <v type="int" >      126 </v>
   <v type="int" >      127 </v>
   <v type="int" >      128 </v>
   <v type="int" >      129 </v>
   <v type="int" >      130 </v>
   <v type="int" >      131 </v>
   <v type="int" >      132 </v>
   <v type="int" >      133 </v>
   <v type="int" >      134 </v>
   <v type="int" >      135 </v>
   <v type="int" >      136 </v>
   <v type="int" >      137 </v>
   <v type="int" >      138 </v>
   <v type="int" >      139 </v>
   <v type="int" >      140 </v>
   <v type="int" >      141 </v>
   <v type="int" >      142 </v>
   <v type="int" >      143 </v>
   <v type="int" >      144 </v>
   <v type="int" >      145 </v>
   <v type="int" >      146 </v>
   <v type="int" >      147 </v>
   <v type="int" >      148 </v>
   <v type="int" >      149 </v>
   <v type="int" >      150 </v>
   <v type="int" >      151 </v>
   <v type="int" >      152 </v>
   <v type="int" >      153 </v>
   <v type="int" >      154 </v>
   <v type="int" >      155 </v>
   <v type="int" >      156 </v>
   <v type="int" >      157 </v>
   <v type="int" >      158 </v>
   <v type="int" >      159 </v>
   <v type="int" >      160 </v>
   <v type="int" >      161 </v>
   <v type="int" >      162 </v>
   <v type="int" >      163 </v>
   <v type="int" >      164 </v>
   <v type="int" >      165 </v>
   <v type="int" >      166 </v>
   <v type="int" >      167 </v>
   <v type="int" >      168 </v>
   <v type="int" >      169 </v>
   <v type="int" >      170 </v>
   <v type="int" >      171 </v>
   <v type="int" >      172 </v>
   <v type="int" >      173 </v>
   <v type="int" >      174 </v>
   <v type="int" >      175 </v>
   <v type="int" >      176 </v>
   <v type="int" >      177 </v>
   <v type="int" >      178 </v>
   <v type="int" >      179 </v>
   <v type="int" >      180 </v>
   <v type="int" >      181 </v>
   <v type="int" >      182 </v>
   <v type="int" >      183 </v>
   <v type="int" >      184 </v>
   <v type="int" >      185 </v>
   <v type="int" >      186 </v>
   <v type="int" >      187 </v>
   <v type="int" >      188 </v>
   <v type="int" >      189 </v>
   <v type="int" >      190 </v>
   <v type="int" >      191 </v>
   <v type="int" >      192 </v>
   <v type="int" >      193 </v>
   <v type="int" >      194 </v>
   <v type="int" >      195 </v>
   <v type="int" >      196 </v>
   <v type="int" >      197 </v>
   <v type="int" >      198 </v>
   <v type="int" >      199 </v>
   <v type="int" >      200 </v>
   <v type="int" >      201 </v>
   <v type="int" >      202 </v>
   <v type="int" >      203 </v>
   <v type="int" >      204 </v>
   <v type="int" >      205 </v>
   <v type="int" >      206 </v>
   <v type="int" >      207 </v>
   <v type="int" >      208 </v>
   <v type="int" >      209 </v>
   <v type="int" >      210 </v>
   <v type="int" >      211 </v>
   <v type="int" >      212 </v>
   <v type="int" >      213 </v>
   <v type="int" >      214 </v>
   <v type="int" >      215 </v>
   <v type="int" >      216 </v>
   <v type="int" >      217 </v>
   <v type="int" >      218 </v>
   <v type="int" >      219 </v>
   <v type="int" >      220 </v>
   <v type="int" >      221 </v>
   <v type="int" >      222 </v>
   <v type="int" >      223 </v>
   <v type="int" >      224 </v>
   <v type="int" >      225 </v>
   <v type="int" >      226 </v>
   <v type="int" >      227 </v>
   <v type="int" >      228 </v>
   <v type="int" >      229 </v>
   <v type="int" >      230 </v>
   <v type="int" >      231 </v>
   <v type="int" >      232 </v>
   <v type="int" >      233 </v>
   <v type="int" >      234 </v>
   <v type="int" >      235 </v>
   <v type="int" >      236 </v>
   <v type="int" >      237 </v>
   <v type="int" >      238 </v>
   <v type="int" >      239 </v>
   <v type="int" >      240 </v>
   <v type="int" >      241 </v>
   <v type="int" >      242 </v>
   <v type="int" >      243 </v>
   <v type="int" >      244 </v>
   <v type="int" >      245 </v>
   <v type="int" >      246 </v>
   <v type="int" >      247 </v>
   <v type="int" >      248 </v>
   <v type="int" >      249 </v>
   <v type="int" >      250 </v>
   <v type="int" >      251 </v>
   <v type="int" >      252 </v>
   <v type="int" >      253 </v>
   <v type="int" >      254 </v>
   <v type="int" >      255 </v>
   <v type="int" >      256 </v>
   <v type="int" >      257 </v>
   <v type="int" >      258 </v>
   <v type="int" >      259 </v>
   <v type="int" >      260 </v>
   <v type="int" >      261 </v>
   <v type="int" >      262 </v>
   <v type="int" >      263 </v>
   <v type="int" >      264 </v>
   <v type="int" >      265 </v>
   <v type="int" >      266 </v>
   <v type="int" >      267 </v>
   <v type="int" >      268 </v>
  </varray>
 </primitive_cell>
 <kpoints>
  <generation param="Gamma">
   <v type="int" name="divisions">       2        1        1 </v>
   <v name="usershift">      0.00000000       0.00000000       0.00000000 </v>
   <v name="genvec1">      0.50000000       0.00000000       0.00000000 </v>
   <v name="genvec2">      0.00000000       1.00000000       0.00000000 </v>
   <v name="genvec3">      0.00000000       0.00000000       1.00000000 </v>
   <v name="shift">      0.00000000       0.00000000       0.00000000 </v>
  </generation>
  <varray name="kpointlist" >
   <v>       0.00000000       0.00000000       0.00000000 </v>
   <v>       0.50000000       0.00000000       0.00000000 </v>
  </varray>
  <varray name="weights" >
   <v>       0.50000000 </v>
   <v>       0.50000000 </v>
  </varray>
 </kpoints>
 <parameters>
  <separator name="general" >
   <i type="string" name="SYSTEM">unknown system</i>
   <i type="logical" name="LCOMPAT"> F  </i>
  </separator>
  <separator name="electronic" >
   <i type="string" name="PREC">normal</i>
   <i name="ENMAX">    400.00000000</i>
   <i name="ENAUG">    605.39200000</i>
   <i name="EDIFF">      0.00000001</i>
   <i type="int" name="IALGO">    68</i>
   <i type="int" name="IWAVPR">    10</i>
   <i type="int" name="NBANDS">   448</i>
   <i type="int" name="NBANDSLOW">    -1</i>
   <i type="int" name="NBANDSHIGH">    -1</i>
   <i name="NELECT">    620.00000000</i>
   <i type="int" name="TURBO">     0</i>
   <i type="int" name="IRESTART">     0</i>
   <i type="int" name="NREBOOT">     0</i>
   <i type="int" name="NMIN">     0</i>
   <i name="EREF">      0.00000000</i>
   <separator name="electronic smearing" >
    <i type="int" name="ISMEAR">     0</i>
    <i name="SIGMA">      0.10000000</i>
    <i name="KSPACING">      0.50000000</i>
    <i type="logical" name="KGAMMA"> T  </i>
    <i type="logical" name="KBLOWUP"> T  </i>
   </separator>
   <separator name="electronic projectors" >
    <i type="logical" name="LREAL"> T  </i>
    <v name="ROPT">     -0.00050000     -0.00050000     -0.00050000</v>
    <i type="int" name="LMAXPAW">  -100</i>
    <i type="int" name="LMAXMIX">     6</i>
    <i type="logical" name="NLSPLINE"> F  </i>
   </separator>
   <separator name="electronic startup" >
    <i type="int" name="ISTART">     0</i>
    <i type="int" name="ICHARG">     2</i>
    <i type="int" name="INIWAV">     1</i>
   </separator>
   <separator name="electronic spin" >
    <i type="int" name="ISPIN">     1</i>
    <i type="logical" name="LNONCOLLINEAR"> F  </i>
    <v name="MAGMOM">      1.00000000      1.00000000      1.00000000      1.00000000      1.00000000      1.00000000      1.00000000      1.00000000      1.00000000      1.00000000      1.00000000      1.00000000      1.00000000      1.00000000      1.00000000      1.00000000      1.00000000      1.00000000      1.00000000      1.00000000
      1.00000000      1.00000000      1.00000000      1.00000000      1.00000000      1.00000000      1.00000000      1.00000000      1.00000000      1.00000000      1.00000000      1.00000000      1.00000000      1.00000000      1.00000000      1.00000000      1.00000000      1.00000000      1.00000000      1.00000000
      1.00000000      1.00000000      1.00000000      1.00000000      1.00000000      1.00000000      1.00000000      1.00000000      1.00000000      1.00000000      1.00000000      1.00000000      1.00000000      1.00000000      1.00000000      1.00000000      1.00000000      1.00000000      1.00000000      1.00000000
      1.00000000      1.00000000      1.00000000      1.00000000      1.00000000      1.00000000      1.00000000      1.00000000      1.00000000      1.00000000      1.00000000      1.00000000      1.00000000      1.00000000      1.00000000      1.00000000      1.00000000      1.00000000      1.00000000      1.00000000
      1.00000000      1.00000000      1.00000000      1.00000000      1.00000000      1.00000000      1.00000000      1.00000000      1.00000000      1.00000000      1.00000000      1.00000000      1.00000000      1.00000000      1.00000000      1.00000000      1.00000000      1.00000000      1.00000000      1.00000000
      1.00000000      1.00000000      1.00000000      1.00000000      1.00000000      1.00000000      1.00000000      1.00000000      1.00000000      1.00000000      1.00000000      1.00000000      1.00000000      1.00000000      1.00000000      1.00000000      1.00000000      1.00000000      1.00000000      1.00000000
      1.00000000      1.00000000      1.00000000      1.00000000      1.00000000      1.00000000      1.00000000      1.00000000      1.00000000      1.00000000      1.00000000      1.00000000      1.00000000      1.00000000      1.00000000      1.00000000      1.00000000      1.00000000      1.00000000      1.00000000
      1.00000000      1.00000000      1.00000000      1.00000000      1.00000000      1.00000000      1.00000000      1.00000000      1.00000000      1.00000000      1.00000000      1.00000000      1.00000000      1.00000000      1.00000000      1.00000000      1.00000000      1.00000000      1.00000000      1.00000000
      1.00000000      1.00000000      1.00000000      1.00000000      1.00000000      1.00000000      1.00000000      1.00000000      1.00000000      1.00000000      1.00000000      1.00000000      1.00000000      1.00000000      1.00000000      1.00000000      1.00000000      1.00000000      1.00000000      1.00000000
      1.00000000      1.00000000      1.00000000      1.00000000      1.00000000      1.00000000      1.00000000      1.00000000      1.00000000      1.00000000      1.00000000      1.00000000      1.00000000      1.00000000      1.00000000      1.00000000      1.00000000      1.00000000      1.00000000      1.00000000
      1.00000000      1.00000000      1.00000000      1.00000000      1.00000000      1.00000000      1.00000000      1.00000000      1.00000000      1.00000000      1.00000000      1.00000000      1.00000000      1.00000000      1.00000000      1.00000000      1.00000000      1.00000000      1.00000000      1.00000000
      1.00000000      1.00000000      1.00000000      1.00000000      1.00000000      1.00000000      1.00000000      1.00000000      1.00000000      1.00000000      1.00000000      1.00000000      1.00000000      1.00000000      1.00000000      1.00000000      1.00000000      1.00000000      1.00000000      1.00000000
      1.00000000      1.00000000      1.00000000      1.00000000      1.00000000      1.00000000      1.00000000      1.00000000      1.00000000      1.00000000      1.00000000      1.00000000      1.00000000      1.00000000      1.00000000      1.00000000      1.00000000      1.00000000      1.00000000      1.00000000
      1.00000000      1.00000000      1.00000000      1.00000000      1.00000000      1.00000000      1.00000000      1.00000000</v>
    <i name="NUPDOWN">     -1.00000000</i>
    <i type="logical" name="LSORBIT"> F  </i>
    <v name="SAXIS">      0.00000000      0.00000000      1.00000000</v>
    <i type="logical" name="LSPIRAL"> F  </i>
    <v name="QSPIRAL">      0.00000000      0.00000000      0.00000000</v>
    <i type="logical" name="LZEROZ"> F  </i>
   </separator>
   <separator name="electronic exchange-correlation" >
    <i type="logical" name="LASPH"> T  </i>
    <i type="logical" name="LMETAGGA"> F  </i>
   </separator>
   <separator name="electronic convergence" >
    <i type="int" name="NELM">   150</i>
    <i type="int" name="NELMDL">     0</i>
    <i type="int" name="NELMIN">     2</i>
    <i name="ENINI">    400.00000000</i>
    <separator name="electronic convergence detail" >
     <i type="logical" name="LDIAG"> T  </i>
     <i type="logical" name="LSUBROT"> F  </i>
     <i name="WEIMIN">      0.00000000</i>
     <i name="EBREAK">      0.00000000</i>
     <i name="DEPER">      0.30000000</i>
     <i type="int" name="NRMM">     4</i>
     <i name="TIME">      0.40000000</i>
    </separator>
   </separator>
   <separator name="electronic mixer" >
    <i name="AMIX">      0.40000000</i>
    <i name="BMIX">      1.00000000</i>
    <i name="AMIN">      0.01000000</i>
    <i name="AMIX_MAG">      1.60000000</i>
    <i name="BMIX_MAG">      1.00000000</i>
    <separator name="electronic mixer details" >
     <i type="int" name="IMIX">     4</i>
     <i type="logical" name="MIXFIRST"> F  </i>
     <i type="int" name="MAXMIX">   -45</i>
     <i name="WC">    100.00000000</i>
     <i type="int" name="INIMIX">     1</i>
     <i type="int" name="MIXPRE">     1</i>
     <i type="int" name="MREMOVE">     5</i>
    </separator>
   </separator>
   <separator name="electronic dipolcorrection" >
    <i type="logical" name="LDIPOL"> F  </i>
    <i type="logical" name="LMONO"> F  </i>
    <i type="int" name="IDIPOL">     0</i>
    <i name="EPSILON">      1.00000000</i>
    <v name="DIPOL">   -100.00000000   -100.00000000   -100.00000000</v>
    <i name="EFIELD">      0.00000000</i>
   </separator>
  </separator>
  <separator name="grids" >
   <i type="int" name="NGX">    64</i>
   <i type="int" name="NGY">    90</i>
   <i type="int" name="NGZ">   210</i>
   <i type="int" name="NGXF">   128</i>
   <i type="int" name="NGYF">   180</i>
   <i type="int" name="NGZF">   420</i>
   <i type="logical" name="ADDGRID"> F  </i>
  </separator>
  <separator name="ionic" >
   <i type="int" name="NSW">     0</i>
   <i type="int" name="IBRION">    -1</i>
   <i type="int" name="MDALGO">     0</i>
   <i type="int" name="ISIF">     3</i>
   <i name="PSTRESS">      0.00000000</i>
   <i name="EDIFFG">     -0.01000000</i>
   <i type="int" name="NFREE">     0</i>
   <i name="POTIM">      0.50000000</i>
   <i name="SMASS">     -3.00000000</i>
   <i name="SCALEE">      1.00000000</i>
  </separator>
  <separator name="ionic md" >
   <i name="TEBEG">      0.00010000</i>
   <i name="TEEND">      0.00010000</i>
   <i type="int" name="NBLOCK">     1</i>
   <i type="int" name="KBLOCK">     1</i>
   <i type="int" name="NPACO">   256</i>
   <i name="APACO">     16.00000000</i>
  </separator>
  <separator name="symmetry" >
   <i type="int" name="ISYM">     2</i>
   <i name="SYMPREC">      0.00001000</i>
  </separator>
  <separator name="dos" >
   <i type="int" name="LORBIT">     0</i>
   <v name="RWIGS">     -1.00000000     -1.00000000     -1.00000000</v>
   <i type="int" name="NEDOS">   301</i>
   <i name="EMIN">     10.00000000</i>
   <i name="EMAX">    -10.00000000</i>
   <i name="EFERMI">      0.00000000</i>
  </separator>
  <separator name="writing" >
   <i type="int" name="NWRITE">     1</i>
   <i type="logical" name="LWAVE"> F  </i>
   <i type="logical" name="LDOWNSAMPLE"> F  </i>
   <i type="logical" name="LCHARG"> F  </i>
   <i type="logical" name="LPARD"> F  </i>
   <i type="logical" name="LVTOT"> F  </i>
   <i type="logical" name="LVHAR"> F  </i>
   <i type="logical" name="LELF"> F  </i>
   <i type="logical" name="LOPTICS"> F  </i>
   <v name="STM">      0.00000000      0.00000000      0.00000000      0.00000000      0.00000000      0.00000000      0.00000000</v>
  </separator>
  <separator name="performance" >
   <i type="int" name="NPAR">     8</i>
   <i type="int" name="NSIM">     4</i>
   <i type="int" name="NBLK">    -1</i>
   <i type="logical" name="LPLANE"> T  </i>
   <i type="logical" name="LSCALAPACK"> T  </i>
   <i type="logical" name="LSCAAWARE"> F  </i>
   <i type="logical" name="LSCALU"> F  </i>
   <i type="logical" name="LASYNC"> F  </i>
   <i type="logical" name="LORBITALREAL"> F  </i>
  </separator>
  <separator name="miscellaneous" >
   <i type="int" name="IDIOT">     3</i>
   <i type="int" name="PHON_NSTRUCT">    -1</i>
   <i type="logical" name="LMUSIC"> F  </i>
   <v name="POMASS">     35.45300000     22.99000000     16.00000000</v>
   <v name="DARWINR">      0.00000000      0.00000000      0.00000000</v>
   <v name="DARWINV">      1.00000000      1.00000000      1.00000000</v>
   <i type="logical" name="LCORR"> T  </i>
  </separator>
  <i type="logical" name="GGA_COMPAT"> T  </i>
  <i type="logical" name="LBERRY"> F  </i>
  <i type="int" name="ICORELEVEL">     0</i>
  <i type="logical" name="LDAU"> F  </i>
  <i type="int" name="I_CONSTRAINED_M">     0</i>
  <separator name="electronic exchange-correlation" >
   <i type="string" name="GGA">PE</i>
   <i type="int" name="VOSKOWN">     0</i>
   <i type="logical" name="LHFCALC"> F  </i>
   <i type="string" name="PRECFOCK"></i>
   <i type="logical" name="LSYMGRAD"> F  </i>
   <i type="logical" name="LHFONE"> F  </i>
   <i type="logical" name="LRHFCALC"> F  </i>
   <i type="logical" name="LTHOMAS"> F  </i>
   <i type="logical" name="LMODELHF"> F  </i>
   <i type="logical" name="LFOCKACE"> F  </i>
   <i name="ENCUT4O">     -1.00000000</i>
   <i type="int" name="EXXOEP">     0</i>
   <i type="int" name="FOURORBIT">     0</i>
   <i name="AEXX">      0.00000000</i>
   <i name="HFALPHA">      0.00000000</i>
   <i name="MCALPHA">      0.00000000</i>
   <i name="ALDAX">      1.00000000</i>
   <i name="AGGAX">      1.00000000</i>
   <i name="ALDAC">      1.00000000</i>
   <i name="AGGAC">      1.00000000</i>
   <i type="int" name="NKREDX">     1</i>
   <i type="int" name="NKREDY">     1</i>
   <i type="int" name="NKREDZ">     1</i>
   <i type="logical" name="SHIFTRED"> F  </i>
   <i type="logical" name="ODDONLY"> F  </i>
   <i type="logical" name="EVENONLY"> F  </i>
   <i type="int" name="LMAXFOCK">     0</i>
   <i type="int" name="NMAXFOCKAE">     0</i>
   <i type="logical" name="LFOCKAEDFT"> F  </i>
   <i name="HFSCREEN">      0.00000000</i>
   <i name="HFSCREENC">      0.00000000</i>
   <i type="int" name="NBANDSGWLOW">     0</i>
  </separator>
  <separator name="vdW DFT" >
   <i type="logical" name="LUSE_VDW"> F  </i>
   <i name="Zab_VDW">     -0.84910000</i>
   <i name="PARAM1">      0.12340000</i>
   <i name="PARAM2">      1.00000000</i>
   <i name="PARAM3">      0.00000000</i>
  </separator>
  <separator name="model GW" >
   <i type="int" name="MODEL_GW">     0</i>
   <i name="MODEL_EPS0">     15.02214535</i>
   <i name="MODEL_ALPHA">      1.00000000</i>
  </separator>
  <separator name="linear response parameters" >
   <i type="logical" name="LEPSILON"> F  </i>
   <i type="logical" name="LRPA"> F  </i>
   <i type="logical" name="LNABLA"> F  </i>
   <i type="logical" name="LVEL"> F  </i>
   <i type="int" name="KINTER">     0</i>
   <i name="CSHIFT">      0.10000000</i>
   <i name="OMEGAMAX">     -1.00000000</i>
   <i name="DEG_THRESHOLD">      0.00200000</i>
   <i name="RTIME">     -0.10000000</i>
   <i name="WPLASMAI">      0.00000000</i>
   <v name="DFIELD">      0.00000000      0.00000000      0.00000000</v>
   <v name="WPLASMA">      0.00000000      0.00000000      0.00000000      0.00000000      0.00000000      0.00000000      0.00000000      0.00000000      0.00000000</v>
  </separator>
  <separator name="orbital magnetization" >
   <i type="logical" name="NUCIND"> F  </i>
   <v name="MAGPOS">      0.00000000      0.00000000      0.00000000</v>
   <i type="logical" name="LNICSALL"> T  </i>
   <i type="logical" name="ORBITALMAG"> F  </i>
   <i type="logical" name="LMAGBLOCH"> F  </i>
   <i type="logical" name="LCHIMAG"> F  </i>
   <i type="logical" name="LGAUGE"> T  </i>
   <i type="int" name="MAGATOM">     0</i>
   <v name="MAGDIPOL">      0.00000000      0.00000000      0.00000000</v>
   <v name="AVECCONST">      0.00000000      0.00000000      0.00000000</v>
  </separator>
  <separator name="response functions" >
   <i type="logical" name="LFINITE_TEMPERATURE"> F  </i>
   <i type="logical" name="LADDER"> F  </i>
   <i type="logical" name="LRPAFORCE"> F  </i>
   <i type="logical" name="LFXC"> F  </i>
   <i type="logical" name="LHARTREE"> T  </i>
   <i type="int" name="IBSE">     0</i>
   <v type="int" name="KPOINT">    -1     0     0     0</v>
   <i type="logical" name="LTCTC"> F  </i>
   <i type="logical" name="LTCTE"> F  </i>
   <i type="logical" name="LTETE"> F  </i>
   <i type="logical" name="LTRIPLET"> F  </i>
   <i type="logical" name="LFXCEPS"> F  </i>
   <i type="logical" name="LFXHEG"> F  </i>
   <i type="int" name="NATURALO">     2</i>
   <i type="logical" name="LHOLEGF"> F  </i>
   <i type="logical" name="L2ORDER"> F  </i>
   <i type="logical" name="LDMP1"> F  </i>
   <i type="logical" name="LMP2LT"> F  </i>
   <i type="logical" name="LSMP2LT"> F  </i>
   <i type="logical" name="LGWLF"> F  </i>
   <i name="ENCUTGW">     -2.00000000</i>
   <i name="ENCUTGWSOFT">     -2.00000000</i>
   <i name="ENCUTLF">     -1.00000000</i>
   <i type="logical" name="LESF_SPLINES"> F  </i>
   <i type="int" name="LMAXMP2">    -1</i>
   <i name="SCISSOR">      0.00000000</i>
   <i type="int" name="NOMEGA">     0</i>
   <i type="int" name="NOMEGAR">     0</i>
   <i type="int" name="NBANDSGW">    -1</i>
   <i type="int" name="NBANDSO">    -1</i>
   <i type="int" name="NBANDSV">    -1</i>
   <i type="int" name="NELM">   150</i>
   <i type="int" name="NELMHF">     1</i>
   <i type="int" name="DIM">     3</i>
   <i type="int" name="IESPILON">     4</i>
   <i type="int" name="ANTIRES">     0</i>
   <i name="OMEGAMAX">    -30.00000000</i>
   <i name="OMEGAMIN">    -30.00000000</i>
   <i name="OMEGATL">   -200.00000000</i>
   <i type="int" name="OMEGAGRID">     0</i>
   <i name="CSHIFT">     -0.10000000</i>
   <i type="logical" name="LSELFENERGY"> F  </i>
   <i type="logical" name="LSPECTRAL"> F  </i>
   <i type="logical" name="LSPECTRALGW"> F  </i>
   <i type="logical" name="LSINGLES"> F  </i>
   <i type="logical" name="LFERMIGW"> F  </i>
   <i type="logical" name="ODDONLYGW"> F  </i>
   <i type="logical" name="EVENONLYGW"> F  </i>
   <i type="int" name="NKREDLFX">     1</i>
   <i type="int" name="NKREDLFY">     1</i>
   <i type="int" name="NKREDLFZ">     1</i>
   <i type="int" name="MAXMEM">  2800</i>
   <i type="int" name="TELESCOPE">     0</i>
   <i type="int" name="NTAUPAR">    -1</i>
   <i type="int" name="NOMEGAPAR">    -1</i>
   <i name="DAMP_NEWTON">      0.80000001</i>
   <i name="LAMBDA">      1.00000000</i>
  </separator>
  <separator name="External order field" >
   <i name="OFIELD_KAPPA">      0.00000000</i>
   <v name="OFIELD_K">      0.00000000      0.00000000      0.00000000</v>
   <i name="OFIELD_Q6_NEAR">      0.00000000</i>
   <i name="OFIELD_Q6_FAR">      0.00000000</i>
   <i name="OFIELD_A">      0.00000000</i>
  </separator>
 </parameters>
 <atominfo>
  <atoms>     268 </atoms>
  <types>       3 </types>
  <array name="atoms" >
   <dimension dim="1">ion</dimension>
   <field type="string">element</field>
   <field type="int">atomtype</field>
   <set>
    <rc><c>Cl</c><c>   1</c></rc>
    <rc><c>Cl</c><c>   1</c></rc>
    <rc><c>Cl</c><c>   1</c></rc>
    <rc><c>Cl</c><c>   1</c></rc>
    <rc><c>Cl</c><c>   1</c></rc>
    <rc><c>Cl</c><c>   1</c></rc>
    <rc><c>Cl</c><c>   1</c></rc>
    <rc><c>Cl</c><c>   1</c></rc>
    <rc><c>Cl</c><c>   1</c></rc>
    <rc><c>Cl</c><c>   1</c></rc>
    <rc><c>Cl</c><c>   1</c></rc>
    <rc><c>Cl</c><c>   1</c></rc>
    <rc><c>Cl</c><c>   1</c></rc>
    <rc><c>Cl</c><c>   1</c></rc>
    <rc><c>Cl</c><c>   1</c></rc>
    <rc><c>Cl</c><c>   1</c></rc>
    <rc><c>Cl</c><c>   1</c></rc>
    <rc><c>Cl</c><c>   1</c></rc>
    <rc><c>Cl</c><c>   1</c></rc>
    <rc><c>Cl</c><c>   1</c></rc>
    <rc><c>Cl</c><c>   1</c></rc>
    <rc><c>Cl</c><c>   1</c></rc>
    <rc><c>Cl</c><c>   1</c></rc>
    <rc><c>Cl</c><c>   1</c></rc>
    <rc><c>Cl</c><c>   1</c></rc>
    <rc><c>Cl</c><c>   1</c></rc>
    <rc><c>Cl</c><c>   1</c></rc>
    <rc><c>Cl</c><c>   1</c></rc>
    <rc><c>Cl</c><c>   1</c></rc>
    <rc><c>Cl</c><c>   1</c></rc>
    <rc><c>Cl</c><c>   1</c></rc>
    <rc><c>Cl</c><c>   1</c></rc>
    <rc><c>Na</c><c>   2</c></rc>
    <rc><c>Na</c><c>   2</c></rc>
    <rc><c>Na</c><c>   2</c></rc>
    <rc><c>Na</c><c>   2</c></rc>
    <rc><c>Na</c><c>   2</c></rc>
    <rc><c>Na</c><c>   2</c></rc>
    <rc><c>Na</c><c>   2</c></rc>
    <rc><c>Na</c><c>   2</c></rc>
    <rc><c>Na</c><c>   2</c></rc>
    <rc><c>Na</c><c>   2</c></rc>
    <rc><c>Na</c><c>   2</c></rc>
    <rc><c>Na</c><c>   2</c></rc>
    <rc><c>Na</c><c>   2</c></rc>
    <rc><c>Na</c><c>   2</c></rc>
    <rc><c>Na</c><c>   2</c></rc>
    <rc><c>Na</c><c>   2</c></rc>
    <rc><c>Na</c><c>   2</c></rc>
    <rc><c>Na</c><c>   2</c></rc>
    <rc><c>Na</c><c>   2</c></rc>
    <rc><c>Na</c><c>   2</c></rc>
    <rc><c>Na</c><c>   2</c></rc>
    <rc><c>Na</c><c>   2</c></rc>
    <rc><c>Na</c><c>   2</c></rc>
    <rc><c>Na</c><c>   2</c></rc>
    <rc><c>Na</c><c>   2</c></rc>
    <rc><c>Na</c><c>   2</c></rc>
    <rc><c>Na</c><c>   2</c></rc>
    <rc><c>Na</c><c>   2</c></rc>
    <rc><c>Na</c><c>   2</c></rc>
    <rc><c>Na</c><c>   2</c></rc>
    <rc><c>Na</c><c>   2</c></rc>
    <rc><c>Na</c><c>   2</c></rc>
    <rc><c>Na</c><c>   2</c></rc>
    <rc><c>Na</c><c>   2</c></rc>
    <rc><c>Na</c><c>   2</c></rc>
    <rc><c>Na</c><c>   2</c></rc>
    <rc><c>Na</c><c>   2</c></rc>
    <rc><c>Na</c><c>   2</c></rc>
    <rc><c>Na</c><c>   2</c></rc>
    <rc><c>Na</c><c>   2</c></rc>
    <rc><c>Na</c><c>   2</c></rc>
    <rc><c>Na</c><c>   2</c></rc>
    <rc><c>Na</c><c>   2</c></rc>
    <rc><c>Na</c><c>   2</c></rc>
    <rc><c>Na</c><c>   2</c></rc>
    <rc><c>Na</c><c>   2</c></rc>
    <rc><c>Na</c><c>   2</c></rc>
    <rc><c>Na</c><c>   2</c></rc>
    <rc><c>Na</c><c>   2</c></rc>
    <rc><c>Na</c><c>   2</c></rc>
    <rc><c>Na</c><c>   2</c></rc>
    <rc><c>Na</c><c>   2</c></rc>
    <rc><c>Na</c><c>   2</c></rc>
    <rc><c>Na</c><c>   2</c></rc>
    <rc><c>Na</c><c>   2</c></rc>
    <rc><c>Na</c><c>   2</c></rc>
    <rc><c>Na</c><c>   2</c></rc>
    <rc><c>Na</c><c>   2</c></rc>
    <rc><c>Na</c><c>   2</c></rc>
    <rc><c>Na</c><c>   2</c></rc>
    <rc><c>Na</c><c>   2</c></rc>
    <rc><c>Na</c><c>   2</c></rc>
    <rc><c>Na</c><c>   2</c></rc>
    <rc><c>Na</c><c>   2</c></rc>
    <rc><c>Na</c><c>   2</c></rc>
    <rc><c>Na</c><c>   2</c></rc>
    <rc><c>Na</c><c>   2</c></rc>
    <rc><c>Na</c><c>   2</c></rc>
    <rc><c>Na</c><c>   2</c></rc>
    <rc><c>Na</c><c>   2</c></rc>
    <rc><c>Na</c><c>   2</c></rc>
    <rc><c>Na</c><c>   2</c></rc>
    <rc><c>Na</c><c>   2</c></rc>
    <rc><c>Na</c><c>   2</c></rc>
    <rc><c>Na</c><c>   2</c></rc>
    <rc><c>Na</c><c>   2</c></rc>
    <rc><c>Na</c><c>   2</c></rc>
    <rc><c>Na</c><c>   2</c></rc>
    <rc><c>Na</c><c>   2</c></rc>
    <rc><c>Na</c><c>   2</c></rc>
    <rc><c>Na</c><c>   2</c></rc>
    <rc><c>Na</c><c>   2</c></rc>
    <rc><c>Na</c><c>   2</c></rc>
    <rc><c>Na</c><c>   2</c></rc>
    <rc><c>Na</c><c>   2</c></rc>
    <rc><c>Na</c><c>   2</c></rc>
    <rc><c>Na</c><c>   2</c></rc>
    <rc><c>Na</c><c>   2</c></rc>
    <rc><c>Na</c><c>   2</c></rc>
    <rc><c>Na</c><c>   2</c></rc>
    <rc><c>Na</c><c>   2</c></rc>
    <rc><c>Na</c><c>   2</c></rc>
    <rc><c>Na</c><c>   2</c></rc>
    <rc><c>Na</c><c>   2</c></rc>
    <rc><c>Na</c><c>   2</c></rc>
    <rc><c>Na</c><c>   2</c></rc>
    <rc><c>Na</c><c>   2</c></rc>
    <rc><c>Na</c><c>   2</c></rc>
    <rc><c>Na</c><c>   2</c></rc>
    <rc><c>Na</c><c>   2</c></rc>
    <rc><c>Na</c><c>   2</c></rc>
    <rc><c>Na</c><c>   2</c></rc>
    <rc><c>Na</c><c>   2</c></rc>
    <rc><c>Na</c><c>   2</c></rc>
    <rc><c>Na</c><c>   2</c></rc>
    <rc><c>Na</c><c>   2</c></rc>
    <rc><c>Na</c><c>   2</c></rc>
    <rc><c>Na</c><c>   2</c></rc>
    <rc><c>Na</c><c>   2</c></rc>
    <rc><c>Na</c><c>   2</c></rc>
    <rc><c>Na</c><c>   2</c></rc>
    <rc><c>Na</c><c>   2</c></rc>
    <rc><c>Na</c><c>   2</c></rc>
    <rc><c>Na</c><c>   2</c></rc>
    <rc><c>Na</c><c>   2</c></rc>
    <rc><c>Na</c><c>   2</c></rc>
    <rc><c>Na</c><c>   2</c></rc>
    <rc><c>Na</c><c>   2</c></rc>
    <rc><c>Na</c><c>   2</c></rc>
    <rc><c>Na</c><c>   2</c></rc>
    <rc><c>Na</c><c>   2</c></rc>
    <rc><c>Na</c><c>   2</c></rc>
    <rc><c>Na</c><c>   2</c></rc>
    <rc><c>Na</c><c>   2</c></rc>
    <rc><c>Na</c><c>   2</c></rc>
    <rc><c>Na</c><c>   2</c></rc>
    <rc><c>Na</c><c>   2</c></rc>
    <rc><c>Na</c><c>   2</c></rc>
    <rc><c>Na</c><c>   2</c></rc>
    <rc><c>Na</c><c>   2</c></rc>
    <rc><c>Na</c><c>   2</c></rc>
    <rc><c>Na</c><c>   2</c></rc>
    <rc><c>Na</c><c>   2</c></rc>
    <rc><c>Na</c><c>   2</c></rc>
    <rc><c>Na</c><c>   2</c></rc>
    <rc><c>Na</c><c>   2</c></rc>
    <rc><c>Na</c><c>   2</c></rc>
    <rc><c>Na</c><c>   2</c></rc>
    <rc><c>Na</c><c>   2</c></rc>
    <rc><c>Na</c><c>   2</c></rc>
    <rc><c>Na</c><c>   2</c></rc>
    <rc><c>Na</c><c>   2</c></rc>
    <rc><c>Na</c><c>   2</c></rc>
    <rc><c>Na</c><c>   2</c></rc>
    <rc><c>Na</c><c>   2</c></rc>
    <rc><c>Na</c><c>   2</c></rc>
    <rc><c>Na</c><c>   2</c></rc>
    <rc><c>Na</c><c>   2</c></rc>
    <rc><c>Na</c><c>   2</c></rc>
    <rc><c>Na</c><c>   2</c></rc>
    <rc><c>Na</c><c>   2</c></rc>
    <rc><c>Na</c><c>   2</c></rc>
    <rc><c>Na</c><c>   2</c></rc>
    <rc><c>Na</c><c>   2</c></rc>
    <rc><c>Na</c><c>   2</c></rc>
    <rc><c>Na</c><c>   2</c></rc>
    <rc><c>Na</c><c>   2</c></rc>
    <rc><c>Na</c><c>   2</c></rc>
    <rc><c>Na</c><c>   2</c></rc>
    <rc><c>Na</c><c>   2</c></rc>
    <rc><c>Na</c><c>   2</c></rc>
    <rc><c>Na</c><c>   2</c></rc>
    <rc><c>Na</c><c>   2</c></rc>
    <rc><c>Na</c><c>   2</c></rc>
    <rc><c>Na</c><c>   2</c></rc>
    <rc><c>Na</c><c>   2</c></rc>
    <rc><c>Na</c><c>   2</c></rc>
    <rc><c>Na</c><c>   2</c></rc>
    <rc><c>Na</c><c>   2</c></rc>
    <rc><c>Na</c><c>   2</c></rc>
    <rc><c>Na</c><c>   2</c></rc>
    <rc><c>Na</c><c>   2</c></rc>
    <rc><c>Na</c><c>   2</c></rc>
    <rc><c>Na</c><c>   2</c></rc>
    <rc><c>Na</c><c>   2</c></rc>
    <rc><c>Na</c><c>   2</c></rc>
    <rc><c>Na</c><c>   2</c></rc>
    <rc><c>Na</c><c>   2</c></rc>
    <rc><c>Na</c><c>   2</c></rc>
    <rc><c>Na</c><c>   2</c></rc>
    <rc><c>Na</c><c>   2</c></rc>
    <rc><c>Na</c><c>   2</c></rc>
    <rc><c>Na</c><c>   2</c></rc>
    <rc><c>Na</c><c>   2</c></rc>
    <rc><c>Na</c><c>   2</c></rc>
    <rc><c>Na</c><c>   2</c></rc>
    <rc><c>Na</c><c>   2</c></rc>
    <rc><c>Na</c><c>   2</c></rc>
    <rc><c>Na</c><c>   2</c></rc>
    <rc><c>Na</c><c>   2</c></rc>
    <rc><c>Na</c><c>   2</c></rc>
    <rc><c>Na</c><c>   2</c></rc>
    <rc><c>Na</c><c>   2</c></rc>
    <rc><c>Na</c><c>   2</c></rc>
    <rc><c>Na</c><c>   2</c></rc>
    <rc><c>Na</c><c>   2</c></rc>
    <rc><c>Na</c><c>   2</c></rc>
    <rc><c>Na</c><c>   2</c></rc>
    <rc><c>Na</c><c>   2</c></rc>
    <rc><c>Na</c><c>   2</c></rc>
    <rc><c>Na</c><c>   2</c></rc>
    <rc><c>Na</c><c>   2</c></rc>
    <rc><c>Na</c><c>   2</c></rc>
    <rc><c>Na</c><c>   2</c></rc>
    <rc><c>O </c><c>   3</c></rc>
    <rc><c>O </c><c>   3</c></rc>
    <rc><c>O </c><c>   3</c></rc>
    <rc><c>O </c><c>   3</c></rc>
    <rc><c>O </c><c>   3</c></rc>
    <rc><c>O </c><c>   3</c></rc>
    <rc><c>O </c><c>   3</c></rc>
    <rc><c>O </c><c>   3</c></rc>
    <rc><c>O </c><c>   3</c></rc>
    <rc><c>O </c><c>   3</c></rc>
    <rc><c>O </c><c>   3</c></rc>
    <rc><c>O </c><c>   3</c></rc>
    <rc><c>O </c><c>   3</c></rc>
    <rc><c>O </c><c>   3</c></rc>
    <rc><c>O </c><c>   3</c></rc>
    <rc><c>O </c><c>   3</c></rc>
    <rc><c>O </c><c>   3</c></rc>
    <rc><c>O </c><c>   3</c></rc>
    <rc><c>O </c><c>   3</c></rc>
    <rc><c>O </c><c>   3</c></rc>
    <rc><c>O </c><c>   3</c></rc>
    <rc><c>O </c><c>   3</c></rc>
    <rc><c>O </c><c>   3</c></rc>
    <rc><c>O </c><c>   3</c></rc>
    <rc><c>O </c><c>   3</c></rc>
    <rc><c>O </c><c>   3</c></rc>
    <rc><c>O </c><c>   3</c></rc>
    <rc><c>O </c><c>   3</c></rc>
    <rc><c>O </c><c>   3</c></rc>
    <rc><c>O </c><c>   3</c></rc>
    <rc><c>O </c><c>   3</c></rc>
    <rc><c>O </c><c>   3</c></rc>
   </set>
  </array>
  <array name="atomtypes" >
   <dimension dim="1">type</dimension>
   <field type="int">atomspertype</field>
   <field type="string">element</field>
   <field>mass</field>
   <field>valence</field>
   <field type="string">pseudopotential</field>
   <set>
    <rc><c>  32</c><c>Cl</c><c>     35.45300000</c><c>      7.00000000</c><c>  PAW_PBE Cl 06Sep2000                  </c></rc>
    <rc><c> 204</c><c>Na</c><c>     22.99000000</c><c>      1.00000000</c><c>  PAW_PBE Na 08Apr2002                  </c></rc>
    <rc><c>  32</c><c>O </c><c>     16.00000000</c><c>      6.00000000</c><c>  PAW_PBE O 08Apr2002                   </c></rc>
   </set>
  </array>
 </atominfo>
 <structure name="initialpos" >
  <crystal>
   <varray name="basis" >
    <v>      -8.90732730       8.90732730       0.00000000 </v>
    <v>     -17.81465460       0.00000000       0.00000000 </v>
    <v>       0.00000000       0.00000000      42.28542365 </v>
   </varray>
   <i name="volume">   6709.89158822 </i>
   <varray name="rec_basis" >
    <v>       0.00000000       0.11226712       0.00000000 </v>
    <v>      -0.05613356      -0.05613356       0.00000000 </v>
    <v>       0.00000000       0.00000000       0.02364881 </v>
   </varray>
  </crystal>
  <varray name="positions" >
   <v>       0.19222855       0.03044442       0.07696930 </v>
   <v>       0.19223151       0.03044196       0.18450639 </v>
   <v>       0.19223264       0.03044237       0.29123522 </v>
   <v>       0.19223223       0.03044277       0.39680210 </v>
   <v>       0.19225175       0.28042321       0.07699985 </v>
   <v>       0.19223213       0.28044274       0.18450751 </v>
   <v>       0.19223223       0.28044294       0.29121037 </v>
   <v>       0.19223231       0.28044275       0.39687051 </v>
   <v>       0.19223020       0.53044213       0.07696990 </v>
   <v>       0.19223221       0.53044245       0.18450641 </v>
   <v>       0.19223263       0.53044250       0.29123517 </v>
   <v>       0.19223222       0.53044281       0.39680211 </v>
   <v>       0.19225168       0.78042222       0.07699986 </v>
   <v>       0.19223146       0.78044394       0.18450726 </v>
   <v>       0.19223869       0.78043772       0.29120489 </v>
   <v>       0.19223223       0.78044279       0.39687046 </v>
   <v>       0.69223036       0.03044229       0.07696979 </v>
   <v>       0.69223248       0.03044263       0.18450636 </v>
   <v>       0.69223286       0.03044245       0.29123522 </v>
   <v>       0.69223219       0.03044278       0.39680210 </v>
   <v>       0.69225153       0.28042231       0.07699988 </v>
   <v>       0.69223149       0.28044392       0.18450732 </v>
   <v>       0.69223858       0.28043777       0.29120489 </v>
   <v>       0.69223221       0.28044282       0.39687047 </v>
   <v>       0.69222897       0.53044431       0.07696944 </v>
   <v>       0.69223185       0.53044207       0.18450645 </v>
   <v>       0.69223264       0.53044254       0.29123517 </v>
   <v>       0.69223210       0.53044282       0.39680210 </v>
   <v>       0.69225245       0.78042253       0.07699991 </v>
   <v>       0.69223078       0.78044462       0.18450773 </v>
   <v>       0.69223870       0.78043765       0.29120493 </v>
   <v>       0.69223217       0.78044287       0.39687047 </v>
   <v>       0.44222938       0.03044116       0.07776274 </v>
   <v>       0.19201587       0.15541702       0.02369589 </v>
   <v>       0.44223761       0.03043866       0.18458503 </v>
   <v>       0.19221106       0.15668706       0.13118177 </v>
   <v>       0.44223347       0.03044224       0.29129842 </v>
   <v>       0.19204168       0.15522847       0.23798586 </v>
   <v>       0.44223505       0.03044056       0.39722087 </v>
   <v>       0.19220879       0.15455245       0.34490848 </v>
   <v>       0.44209617       0.15541597       0.02365843 </v>
   <v>       0.44223862       0.28043742       0.07779037 </v>
   <v>       0.19248640       0.40544401       0.02369942 </v>
   <v>       0.44486964       0.15408314       0.13104524 </v>
   <v>       0.44223400       0.28044122       0.18455418 </v>
   <v>       0.19225119       0.40419806       0.13118239 </v>
   <v>       0.44179765       0.15563142       0.23794911 </v>
   <v>       0.44223440       0.28044129       0.29133951 </v>
   <v>       0.19242899       0.40564922       0.23798426 </v>
   <v>       0.44052828       0.15627942       0.34479732 </v>
   <v>       0.44223420       0.28044098       0.39728879 </v>
   <v>       0.19225793       0.40633267       0.34490831 </v>
   <v>       0.44238154       0.40545169       0.02364886 </v>
   <v>       0.44223810       0.53043787       0.07776373 </v>
   <v>       0.19201758       0.65541694       0.02369555 </v>
   <v>       0.43958918       0.40680049       0.13104509 </v>
   <v>       0.44222238       0.53044777       0.18458677 </v>
   <v>       0.19221147       0.65668679       0.13118198 </v>
   <v>       0.44266875       0.40525410       0.23794978 </v>
   <v>       0.44223326       0.53044245       0.29129881 </v>
   <v>       0.19204051       0.65522830       0.23798650 </v>
   <v>       0.44393881       0.40460499       0.34479747 </v>
   <v>       0.44223510       0.53044050       0.39722102 </v>
   <v>       0.19220877       0.65455237       0.34490857 </v>
   <v>       0.44209711       0.65541588       0.02365880 </v>
   <v>       0.44222355       0.78044584       0.07779164 </v>
   <v>       0.19248629       0.90544454       0.02369962 </v>
   <v>       0.44488015       0.65407629       0.13104447 </v>
   <v>       0.44224031       0.78043956       0.18455498 </v>
   <v>       0.19224739       0.90419361       0.13119082 </v>
   <v>       0.44179875       0.65563108       0.23794974 </v>
   <v>       0.44223419       0.78044220       0.29133945 </v>
   <v>       0.19242925       0.90564931       0.23798462 </v>
   <v>       0.44052843       0.65627937       0.34479740 </v>
   <v>       0.44223420       0.78044103       0.39728878 </v>
   <v>       0.19225812       0.90633287       0.34490838 </v>
   <v>       0.44238076       0.90545192       0.02364891 </v>
   <v>       0.43959049       0.90680012       0.13104547 </v>
   <v>       0.44266894       0.90525468       0.23794899 </v>
   <v>       0.44393873       0.90460512       0.34479733 </v>
   <v>       0.94223795       0.03043803       0.07776368 </v>
   <v>       0.69201767       0.15541683       0.02369554 </v>
   <v>       0.94222234       0.03044777       0.18458675 </v>
   <v>       0.69221197       0.15668651       0.13118198 </v>
   <v>       0.94223340       0.03044228       0.29129881 </v>
   <v>       0.69204075       0.15522776       0.23798663 </v>
   <v>       0.94223515       0.03044049       0.39722102 </v>
   <v>       0.69220878       0.15455231       0.34490857 </v>
   <v>       0.94209730       0.15541574       0.02365883 </v>
   <v>       0.94222446       0.28044489       0.07779165 </v>
   <v>       0.69248638       0.40544440       0.02369964 </v>
   <v>       0.94488024       0.15407594       0.13104450 </v>
   <v>       0.94224173       0.28043827       0.18455499 </v>
   <v>       0.69224764       0.40419307       0.13119096 </v>
   <v>       0.94179972       0.15563043       0.23794991 </v>
   <v>       0.94223519       0.28044126       0.29133958 </v>
   <v>       0.69242968       0.40564911       0.23798465 </v>
   <v>       0.94052847       0.15627935       0.34479739 </v>
   <v>       0.94223434       0.28044089       0.39728879 </v>
   <v>       0.69225819       0.40633276       0.34490844 </v>
   <v>       0.94238093       0.40545185       0.02364892 </v>
   <v>       0.94222957       0.53044098       0.07776293 </v>
   <v>       0.69201597       0.65541706       0.02369589 </v>
   <v>       0.93958816       0.40680114       0.13104501 </v>
   <v>       0.94223750       0.53043871       0.18458530 </v>
   <v>       0.69221084       0.65668733       0.13118159 </v>
   <v>       0.94266912       0.40525438       0.23794958 </v>
   <v>       0.94223324       0.53044243       0.29129860 </v>
   <v>       0.69204160       0.65522755       0.23798670 </v>
   <v>       0.94393909       0.40460492       0.34479739 </v>
   <v>       0.94223527       0.53044044       0.39722097 </v>
   <v>       0.69220886       0.65455232       0.34490857 </v>
   <v>       0.94209607       0.65541597       0.02365847 </v>
   <v>       0.94223767       0.78043836       0.07779031 </v>
   <v>       0.69248645       0.90544406       0.02369938 </v>
   <v>       0.94486934       0.65408354       0.13104507 </v>
   <v>       0.94223255       0.78044252       0.18455418 </v>
   <v>       0.69225121       0.90419710       0.13118278 </v>
   <v>       0.94179927       0.65563072       0.23794995 </v>
   <v>       0.94223342       0.78044222       0.29133946 </v>
   <v>       0.69242495       0.90565785       0.23798556 </v>
   <v>       0.94052821       0.65627942       0.34479740 </v>
   <v>       0.94223429       0.78044095       0.39728879 </v>
   <v>       0.69225796       0.90633290       0.34490831 </v>
   <v>       0.94238147       0.90545177       0.02364881 </v>
   <v>       0.93958819       0.90680117       0.13104494 </v>
   <v>       0.94266867       0.90525436       0.23794978 </v>
   <v>       0.94393854       0.90460513       0.34479743 </v>
   <v>       0.19954897       0.05732728       0.48962704 </v>
   <v>       0.19914042       0.22443055       0.44217992 </v>
   <v>       0.19963266       0.05725204       0.58637409 </v>
   <v>       0.19971635       0.22391094       0.53599833 </v>
   <v>       0.19921584       0.05752530       0.68475498 </v>
   <v>       0.19938373       0.22408741       0.63625998 </v>
   <v>       0.19913099       0.05765976       0.78232624 </v>
   <v>       0.19917455       0.22425239       0.73388383 </v>
   <v>       0.19925969       0.05748871       0.88249775 </v>
   <v>       0.19937045       0.22423492       0.83223182 </v>
   <v>       0.19913566       0.05761450       0.97620105 </v>
   <v>       0.19936845       0.22404584       0.92891760 </v>
   <v>       0.53217156       0.05641740       0.48984291 </v>
   <v>       0.53323669       0.22326708       0.44224923 </v>
   <v>       0.53167607       0.05657604       0.58662470 </v>
   <v>       0.53369469       0.22204258       0.53663634 </v>
   <v>       0.53302737       0.05558334       0.68440386 </v>
   <v>       0.53277409       0.22259516       0.63578255 </v>
   <v>       0.53197317       0.05642502       0.78274645 </v>
   <v>       0.53300439       0.22220072       0.73421979 </v>
   <v>       0.53344470       0.05548512       0.88191315 </v>
   <v>       0.53181876       0.22295507       0.83186076 </v>
   <v>       0.53356063       0.05653211       0.97631285 </v>
   <v>       0.53250567       0.22291096       0.92861404 </v>
   <v>       0.19954094       0.39065642       0.48961648 </v>
   <v>       0.19903561       0.55794863       0.44222105 </v>
   <v>       0.19948145       0.39070358       0.58639877 </v>
   <v>       0.19972113       0.55726952       0.53599639 </v>
   <v>       0.19927939       0.39085896       0.68470569 </v>
   <v>       0.19950595       0.55739108       0.63626499 </v>
   <v>       0.19915460       0.39095855       0.78234263 </v>
   <v>       0.19918606       0.55764030       0.73385058 </v>
   <v>       0.19938649       0.39073774       0.88245720 </v>
   <v>       0.19914229       0.55768402       0.83226670 </v>
   <v>       0.19943970       0.39070738       0.97622408 </v>
   <v>       0.19942531       0.55737100       0.92893616 </v>
   <v>       0.86684649       0.05843014       0.48983242 </v>
   <v>       0.86523108       0.22500385       0.44227619 </v>
   <v>       0.86750559       0.05795931       0.58661986 </v>
   <v>       0.86529377       0.22581948       0.53666565 </v>
   <v>       0.86543667       0.05928698       0.68438093 </v>
   <v>       0.86625636       0.22525963       0.63581512 </v>
   <v>       0.86604115       0.05853958       0.78284779 </v>
   <v>       0.86539109       0.22600600       0.73426410 </v>
   <v>       0.86540632       0.05910840       0.88191346 </v>
   <v>       0.86730232       0.22478492       0.83199650 </v>
   <v>       0.86555108       0.05803667       0.97635119 </v>
   <v>       0.86615186       0.22514820       0.92874318 </v>
   <v>       0.53214684       0.38974808       0.48984901 </v>
   <v>       0.53381939       0.55629340       0.44231182 </v>
   <v>       0.53172238       0.38990330       0.58662944 </v>
   <v>       0.53400380       0.55532362       0.53659112 </v>
   <v>       0.53317333       0.38882842       0.68433018 </v>
   <v>       0.53317375       0.55612173       0.63584724 </v>
   <v>       0.53231634       0.38946095       0.78282475 </v>
   <v>       0.53322943       0.55532321       0.73420151 </v>
   <v>       0.53346705       0.38892947       0.88193874 </v>
   <v>       0.53178344       0.55632209       0.83195719 </v>
   <v>       0.53339261       0.38996705       0.97631244 </v>
   <v>       0.53232403       0.55630902       0.92872852 </v>
   <v>       0.19950599       0.72407576       0.48964434 </v>
   <v>       0.19895112       0.89119524       0.44222601 </v>
   <v>       0.19978048       0.72382357       0.58639149 </v>
   <v>       0.19974695       0.89048163       0.53603422 </v>
   <v>       0.19925103       0.72411414       0.68473251 </v>
   <v>       0.19960355       0.89059079       0.63630225 </v>
   <v>       0.19929136       0.72430987       0.78232035 </v>
   <v>       0.19929772       0.89095034       0.73389537 </v>
   <v>       0.19958678       0.72411331       0.88253012 </v>
   <v>       0.19925378       0.89094371       0.83222501 </v>
   <v>       0.19909416       0.72416632       0.97621765 </v>
   <v>       0.19946983       0.89067981       0.92890624 </v>
   <v>       0.86694555       0.39167328       0.48985966 </v>
   <v>       0.86531851       0.55840264       0.44228147 </v>
   <v>       0.86751454       0.39146126       0.58659133 </v>
   <v>       0.86527928       0.55927134       0.53669023 </v>
   <v>       0.86570990       0.39259446       0.68438677 </v>
   <v>       0.86614280       0.55875914       0.63582424 </v>
   <v>       0.86605008       0.39164076       0.78287654 </v>
   <v>       0.86543174       0.55931157       0.73425269 </v>
   <v>       0.86559503       0.39229496       0.88197318 </v>
   <v>       0.86721484       0.55809853       0.83197304 </v>
   <v>       0.86544907       0.39161889       0.97631042 </v>
   <v>       0.86643026       0.55843884       0.92871312 </v>
   <v>       0.53232392       0.72313597       0.48988802 </v>
   <v>       0.53347718       0.88977123       0.44226119 </v>
   <v>       0.53184071       0.72315866       0.58662143 </v>
   <v>       0.53390609       0.88869635       0.53660396 </v>
   <v>       0.53285804       0.72240526       0.68443018 </v>
   <v>       0.53283635       0.88935491       0.63581938 </v>
   <v>       0.53233540       0.72281847       0.78282149 </v>
   <v>       0.53316871       0.88878793       0.73418067 </v>
   <v>       0.53341239       0.72233036       0.88190851 </v>
   <v>       0.53141109       0.88989918       0.83188827 </v>
   <v>       0.53348040       0.72319668       0.97633148 </v>
   <v>       0.53235491       0.88963518       0.92869695 </v>
   <v>       0.86687211       0.72511092       0.48985348 </v>
   <v>       0.86527259       0.89164866       0.44227955 </v>
   <v>       0.86744386       0.72479231       0.58662595 </v>
   <v>       0.86513565       0.89250975       0.53669405 </v>
   <v>       0.86559104       0.72599346       0.68440902 </v>
   <v>       0.86621893       0.89200666       0.63581811 </v>
   <v>       0.86592755       0.72517820       0.78284323 </v>
   <v>       0.86553564       0.89248291       0.73427279 </v>
   <v>       0.86526112       0.72581205       0.88195104 </v>
   <v>       0.86718723       0.89145666       0.83197962 </v>
   <v>       0.86555814       0.72478109       0.97634683 </v>
   <v>       0.86604447       0.89202559       0.92870547 </v>
   <v>       0.44226591       0.03042111       0.02476290 </v>
   <v>       0.44223329       0.03043988       0.13119978 </v>
   <v>       0.44223357       0.03044244       0.23796471 </v>
   <v>       0.44223439       0.03044129       0.34475289 </v>
   <v>       0.44226687       0.28042187       0.02476941 </v>
   <v>       0.44223218       0.28044095       0.13120312 </v>
   <v>       0.44223384       0.28044185       0.23795840 </v>
   <v>       0.44223433       0.28044162       0.34480016 </v>
   <v>       0.44226644       0.53042097       0.02476339 </v>
   <v>       0.44223145       0.53043993       0.13120085 </v>
   <v>       0.44223377       0.53044195       0.23796563 </v>
   <v>       0.44223429       0.53044135       0.34475307 </v>
   <v>       0.44226591       0.78042260       0.02477004 </v>
   <v>       0.44222938       0.78044167       0.13120397 </v>
   <v>       0.44223418       0.78044232       0.23795862 </v>
   <v>       0.44223393       0.78044189       0.34480014 </v>
   <v>       0.94226645       0.03042096       0.02476336 </v>
   <v>       0.94223152       0.03043985       0.13120084 </v>
   <v>       0.94223362       0.03044209       0.23796563 </v>
   <v>       0.94223432       0.03044130       0.34475306 </v>
   <v>       0.94226592       0.28042257       0.02477006 </v>
   <v>       0.94222962       0.28044127       0.13120399 </v>
   <v>       0.94223497       0.28044174       0.23795868 </v>
   <v>       0.94223394       0.28044161       0.34480020 </v>
   <v>       0.94226589       0.53042113       0.02476301 </v>
   <v>       0.94223308       0.53044007       0.13119989 </v>
   <v>       0.94223431       0.53044167       0.23796508 </v>
   <v>       0.94223388       0.53044178       0.34475309 </v>
   <v>       0.94226682       0.78042190       0.02476939 </v>
   <v>       0.94223178       0.78044136       0.13120307 </v>
   <v>       0.94223372       0.78044240       0.23795835 </v>
   <v>       0.94223386       0.78044189       0.34480014 </v>
  </varray>
 </structure>
 <calculation>
  <scstep>
   <time name="dav">    7.60    7.61</time>
   <time name="total">    7.84    7.85</time>
   <energy>
    <i name="alphaZ">   -187.56438890 </i>
    <i name="ewald"> 107414.15183069 </i>
    <i name="hartreedc">-133450.91048654 </i>
    <i name="XCdc">  -5933.55797641 </i>
    <i name="pawpsdc">  29633.13489558 </i>
    <i name="pawaedc"> -22042.59917747 </i>
    <i name="eentropy">     -0.26341023 </i>
    <i name="bandstr">    656.92248142 </i>
    <i name="atom">  27995.60725988 </i>
    <i name="e_fr_energy">   4084.92102801 </i>
    <i name="e_wo_entrp">   4085.18443824 </i>
    <i name="e_0_energy">   4085.05273312 </i>
   </energy>
  </scstep>
  <scstep>
   <time name="dav">    9.70    9.81</time>
   <time name="total">    9.70    9.81</time>
   <energy>
    <i name="e_fr_energy">    382.27731533 </i>
    <i name="e_wo_entrp">    382.54045389 </i>
    <i name="e_0_energy">    382.40888461 </i>
   </energy>
  </scstep>
  <scstep>
   <time name="dav">    9.80    9.91</time>
   <time name="total">    9.80    9.91</time>
   <energy>
    <i name="e_fr_energy">   -825.79040084 </i>
    <i name="e_wo_entrp">   -825.46299238 </i>
    <i name="e_0_energy">   -825.62669661 </i>
   </energy>
  </scstep>
  <scstep>
   <time name="dav">    8.49    8.50</time>
   <time name="total">    8.50    8.50</time>
   <energy>
    <i name="e_fr_energy">   -869.47017960 </i>
    <i name="e_wo_entrp">   -869.19902154 </i>
    <i name="e_0_energy">   -869.33460057 </i>
   </energy>
  </scstep>
  <scstep>
   <time name="dav">    9.54    9.54</time>
   <time name="total">    9.71    9.71</time>
   <energy>
    <i name="e_fr_energy">   -870.91721725 </i>
    <i name="e_wo_entrp">   -870.64874169 </i>
    <i name="e_0_energy">   -870.78297947 </i>
   </energy>
  </scstep>
  <scstep>
   <time name="diag">    1.37    1.37</time>
   <time name="diis">    3.80    3.80</time>
   <time name="orth">    0.59    0.59</time>
   <time name="total">    6.16    6.16</time>
   <energy>
    <i name="e_fr_energy">   -708.60100801 </i>
    <i name="e_wo_entrp">   -708.27095196 </i>
    <i name="e_0_energy">   -708.43597999 </i>
   </energy>
  </scstep>
  <scstep>
   <time name="diag">    1.37    1.38</time>
   <time name="diis">    4.25    4.25</time>
   <time name="orth">    0.59    0.59</time>
   <time name="total">    6.63    6.67</time>
   <energy>
    <i name="e_fr_energy">   -711.35768055 </i>
    <i name="e_wo_entrp">   -711.02756080 </i>
    <i name="e_0_energy">   -711.19262067 </i>
   </energy>
  </scstep>
  <scstep>
   <time name="diag">    1.37    1.37</time>
   <time name="diis">    3.86    3.86</time>
   <time name="orth">    0.59    0.59</time>
   <time name="total">    6.23    6.23</time>
   <energy>
    <i name="e_fr_energy">   -707.43126758 </i>
    <i name="e_wo_entrp">   -707.09955285 </i>
    <i name="e_0_energy">   -707.26541022 </i>
   </energy>
  </scstep>
  <scstep>
   <time name="diag">    1.37    1.37</time>
   <time name="diis">    3.86    3.86</time>
   <time name="orth">    0.59    0.59</time>
   <time name="total">    6.21    6.22</time>
   <energy>
    <i name="e_fr_energy">   -706.16583187 </i>
    <i name="e_wo_entrp">   -705.81811383 </i>
    <i name="e_0_energy">   -705.99197285 </i>
   </energy>
  </scstep>
  <scstep>
   <time name="diag">    1.36    1.36</time>
   <time name="diis">    4.22    4.22</time>
   <time name="orth">    0.59    0.59</time>
   <time name="total">    6.57    6.57</time>
   <energy>
    <i name="e_fr_energy">   -706.02836468 </i>
    <i name="e_wo_entrp">   -705.71211759 </i>
    <i name="e_0_energy">   -705.87024113 </i>
   </energy>
  </scstep>
  <scstep>
   <time name="diag">    1.37    1.37</time>
   <time name="diis">    3.86    3.86</time>
   <time name="orth">    0.58    0.58</time>
   <time name="total">    6.21    6.21</time>
   <energy>
    <i name="e_fr_energy">   -705.40595733 </i>
    <i name="e_wo_entrp">   -705.09118068 </i>
    <i name="e_0_energy">   -705.24856901 </i>
   </energy>
  </scstep>
  <scstep>
   <time name="diag">    1.38    1.38</time>
   <time name="diis">    4.08    4.08</time>
   <time name="orth">    0.59    0.59</time>
   <time name="total">    6.45    6.46</time>
   <energy>
    <i name="e_fr_energy">   -705.49191726 </i>
    <i name="e_wo_entrp">   -705.18085864 </i>
    <i name="e_0_energy">   -705.33638795 </i>
   </energy>
  </scstep>
  <scstep>
   <time name="diag">    1.38    1.38</time>
   <time name="diis">    4.15    4.15</time>
   <time name="orth">    0.59    0.59</time>
   <time name="total">    6.52    6.53</time>
   <energy>
    <i name="e_fr_energy">   -705.44388804 </i>
    <i name="e_wo_entrp">   -705.13382046 </i>
    <i name="e_0_energy">   -705.28885425 </i>
   </energy>
  </scstep>
  <scstep>
   <time name="diag">    1.37    1.37</time>
   <time name="diis">    4.58    4.58</time>
   <time name="orth">    0.59    0.59</time>
   <time name="total">    6.94    6.94</time>
   <energy>
    <i name="e_fr_energy">   -705.45048801 </i>
    <i name="e_wo_entrp">   -705.14054043 </i>
    <i name="e_0_energy">   -705.29551422 </i>
   </energy>
  </scstep>
  <scstep>
   <time name="diag">    1.37    1.37</time>
   <time name="diis">    4.29    4.29</time>
   <time name="orth">    0.59    0.59</time>
   <time name="total">    6.65    6.65</time>
   <energy>
    <i name="e_fr_energy">   -705.44698789 </i>
    <i name="e_wo_entrp">   -705.13711151 </i>
    <i name="e_0_energy">   -705.29204970 </i>
   </energy>
  </scstep>
  <scstep>
   <time name="diag">    1.37    1.37</time>
   <time name="diis">    4.05    4.05</time>
   <time name="orth">    0.59    0.59</time>
   <time name="total">    6.41    6.41</time>
   <energy>
    <i name="e_fr_energy">   -705.43651606 </i>
    <i name="e_wo_entrp">   -705.12689890 </i>
    <i name="e_0_energy">   -705.28170748 </i>
   </energy>
  </scstep>
  <scstep>
   <time name="diag">    1.37    1.37</time>
   <time name="diis">    4.13    4.13</time>
   <time name="orth">    0.59    0.59</time>
   <time name="total">    6.49    6.76</time>
   <energy>
[...]
       <r>     3.3106    74.9767   709.3387 </r>
       <r>     3.3888    93.8897   716.6875 </r>
       <r>     3.4671   104.9346   724.9008 </r>
       <r>     3.5454    94.1121   732.2671 </r>
       <r>     3.6237    88.4863   739.1930 </r>
       <r>     3.7019    86.7059   745.9795 </r>
       <r>     3.7802    79.2142   752.1796 </r>
       <r>     3.8585    80.4723   758.4783 </r>
       <r>     3.9367   108.8032   766.9944 </r>
       <r>     4.0150   119.5976   776.3553 </r>
       <r>     4.0933   108.9445   784.8825 </r>
       <r>     4.1716    91.1040   792.0133 </r>
       <r>     4.2498    64.1250   797.0324 </r>
       <r>     4.3281    52.7621   801.1621 </r>
       <r>     4.4064    72.1628   806.8104 </r>
       <r>     4.4846    93.0448   814.0930 </r>
       <r>     4.5629    98.1439   821.7748 </r>
       <r>     4.6412   107.6676   830.2020 </r>
       <r>     4.7195   102.8899   838.2553 </r>
       <r>     4.7977    69.4895   843.6943 </r>
       <r>     4.8760    59.0847   848.3189 </r>
       <r>     4.9543    57.5333   852.8221 </r>
       <r>     5.0325    38.3553   855.8242 </r>
       <r>     5.1108    38.2657   858.8193 </r>
       <r>     5.1891    48.2988   862.5996 </r>
       <r>     5.2673    40.7088   865.7859 </r>
       <r>     5.3456    40.6266   868.9658 </r>
       <r>     5.4239    44.2405   872.4286 </r>
       <r>     5.5022    50.5754   876.3871 </r>
       <r>     5.5804    69.2409   881.8067 </r>
       <r>     5.6587    69.3551   887.2351 </r>
       <r>     5.7370    46.1792   890.8496 </r>
       <r>     5.8152    25.9952   892.8843 </r>
       <r>     5.8935    16.2236   894.1541 </r>
       <r>     5.9718    12.1623   895.1061 </r>
       <r>     6.0501     7.9981   895.7321 </r>
       <r>     6.1283     2.9605   895.9638 </r>
       <r>     6.2066     0.4396   895.9982 </r>
       <r>     6.2849     0.0223   896.0000 </r>
       <r>     6.3631     0.0004   896.0000 </r>
       <r>     6.4414     0.0000   896.0000 </r>
       <r>     6.5197     0.0000   896.0000 </r>
       <r>     6.5979     0.0000   896.0000 </r>
       <r>     6.6762     0.0000   896.0000 </r>
       <r>     6.7545     0.0000   896.0000 </r>
       <r>     6.8328     0.0000   896.0000 </r>
       <r>     6.9110     0.0000   896.0000 </r>
       <r>     6.9893     0.0000   896.0000 </r>
       <r>     7.0676     0.0000   896.0000 </r>
      </set>
     </set>
    </array>
   </total>
  </dos>
 </calculation>
 <structure name="finalpos" >
  <crystal>
   <varray name="basis" >
    <v>      -8.90732730       8.90732730       0.00000000 </v>
    <v>     -17.81465460       0.00000000       0.00000000 </v>
    <v>       0.00000000       0.00000000      42.28542365 </v>
   </varray>
   <i name="volume">   6709.89158822 </i>
   <varray name="rec_basis" >
    <v>       0.00000000       0.11226712       0.00000000 </v>
    <v>      -0.05613356      -0.05613356       0.00000000 </v>
    <v>       0.00000000       0.00000000       0.02364881 </v>
   </varray>
  </crystal>
  <varray name="positions" >
   <v>       0.19222855       0.03044442       0.07696930 </v>
   <v>       0.19223151       0.03044196       0.18450639 </v>
   <v>       0.19223264       0.03044237       0.29123522 </v>
   <v>       0.19223223       0.03044277       0.39680210 </v>
   <v>       0.19225175       0.28042321       0.07699985 </v>
   <v>       0.19223213       0.28044274       0.18450751 </v>
   <v>       0.19223223       0.28044294       0.29121037 </v>
   <v>       0.19223231       0.28044275       0.39687051 </v>
   <v>       0.19223020       0.53044213       0.07696990 </v>
   <v>       0.19223221       0.53044245       0.18450641 </v>
   <v>       0.19223263       0.53044250       0.29123517 </v>
   <v>       0.19223222       0.53044281       0.39680211 </v>
   <v>       0.19225168       0.78042222       0.07699986 </v>
   <v>       0.19223146       0.78044394       0.18450726 </v>
   <v>       0.19223869       0.78043772       0.29120489 </v>
   <v>       0.19223223       0.78044279       0.39687046 </v>
   <v>       0.69223036       0.03044229       0.07696979 </v>
   <v>       0.69223248       0.03044263       0.18450636 </v>
   <v>       0.69223286       0.03044245       0.29123522 </v>
   <v>       0.69223219       0.03044278       0.39680210 </v>
   <v>       0.69225153       0.28042231       0.07699988 </v>
   <v>       0.69223149       0.28044392       0.18450732 </v>
   <v>       0.69223858       0.28043777       0.29120489 </v>
   <v>       0.69223221       0.28044282       0.39687047 </v>
   <v>       0.69222897       0.53044431       0.07696944 </v>
   <v>       0.69223185       0.53044207       0.18450645 </v>
   <v>       0.69223264       0.53044254       0.29123517 </v>
   <v>       0.69223210       0.53044282       0.39680210 </v>
   <v>       0.69225245       0.78042253       0.07699991 </v>
   <v>       0.69223078       0.78044462       0.18450773 </v>
   <v>       0.69223870       0.78043765       0.29120493 </v>
   <v>       0.69223217       0.78044287       0.39687047 </v>
   <v>       0.44222938       0.03044116       0.07776274 </v>
   <v>       0.19201587       0.15541702       0.02369589 </v>
   <v>       0.44223761       0.03043866       0.18458503 </v>
   <v>       0.19221106       0.15668706       0.13118177 </v>
   <v>       0.44223347       0.03044224       0.29129842 </v>
   <v>       0.19204168       0.15522847       0.23798586 </v>
   <v>       0.44223505       0.03044056       0.39722087 </v>
   <v>       0.19220879       0.15455245       0.34490848 </v>
   <v>       0.44209617       0.15541597       0.02365843 </v>
   <v>       0.44223862       0.28043742       0.07779037 </v>
   <v>       0.19248640       0.40544401       0.02369942 </v>
   <v>       0.44486964       0.15408314       0.13104524 </v>
   <v>       0.44223400       0.28044122       0.18455418 </v>
   <v>       0.19225119       0.40419806       0.13118239 </v>
   <v>       0.44179765       0.15563142       0.23794911 </v>
   <v>       0.44223440       0.28044129       0.29133951 </v>
   <v>       0.19242899       0.40564922       0.23798426 </v>
   <v>       0.44052828       0.15627942       0.34479732 </v>
   <v>       0.44223420       0.28044098       0.39728879 </v>
   <v>       0.19225793       0.40633267       0.34490831 </v>
   <v>       0.44238154       0.40545169       0.02364886 </v>
   <v>       0.44223810       0.53043787       0.07776373 </v>
   <v>       0.19201758       0.65541694       0.02369555 </v>
   <v>       0.43958918       0.40680049       0.13104509 </v>
   <v>       0.44222238       0.53044777       0.18458677 </v>
   <v>       0.19221147       0.65668679       0.13118198 </v>
   <v>       0.44266875       0.40525410       0.23794978 </v>
   <v>       0.44223326       0.53044245       0.29129881 </v>
   <v>       0.19204051       0.65522830       0.23798650 </v>
   <v>       0.44393881       0.40460499       0.34479747 </v>
   <v>       0.44223510       0.53044050       0.39722102 </v>
   <v>       0.19220877       0.65455237       0.34490857 </v>
   <v>       0.44209711       0.65541588       0.02365880 </v>
   <v>       0.44222355       0.78044584       0.07779164 </v>
   <v>       0.19248629       0.90544454       0.02369962 </v>
   <v>       0.44488015       0.65407629       0.13104447 </v>
   <v>       0.44224031       0.78043956       0.18455498 </v>
   <v>       0.19224739       0.90419361       0.13119082 </v>
   <v>       0.44179875       0.65563108       0.23794974 </v>
   <v>       0.44223419       0.78044220       0.29133945 </v>
   <v>       0.19242925       0.90564931       0.23798462 </v>
   <v>       0.44052843       0.65627937       0.34479740 </v>
   <v>       0.44223420       0.78044103       0.39728878 </v>
   <v>       0.19225812       0.90633287       0.34490838 </v>
   <v>       0.44238076       0.90545192       0.02364891 </v>
   <v>       0.43959049       0.90680012       0.13104547 </v>
   <v>       0.44266894       0.90525468       0.23794899 </v>
   <v>       0.44393873       0.90460512       0.34479733 </v>
   <v>       0.94223795       0.03043803       0.07776368 </v>
   <v>       0.69201767       0.15541683       0.02369554 </v>
   <v>       0.94222234       0.03044777       0.18458675 </v>
   <v>       0.69221197       0.15668651       0.13118198 </v>
   <v>       0.94223340       0.03044228       0.29129881 </v>
   <v>       0.69204075       0.15522776       0.23798663 </v>
   <v>       0.94223515       0.03044049       0.39722102 </v>
   <v>       0.69220878       0.15455231       0.34490857 </v>
   <v>       0.94209730       0.15541574       0.02365883 </v>
   <v>       0.94222446       0.28044489       0.07779165 </v>
   <v>       0.69248638       0.40544440       0.02369964 </v>
   <v>       0.94488024       0.15407594       0.13104450 </v>
   <v>       0.94224173       0.28043827       0.18455499 </v>
   <v>       0.69224764       0.40419307       0.13119096 </v>
   <v>       0.94179972       0.15563043       0.23794991 </v>
   <v>       0.94223519       0.28044126       0.29133958 </v>
   <v>       0.69242968       0.40564911       0.23798465 </v>
   <v>       0.94052847       0.15627935       0.34479739 </v>
   <v>       0.94223434       0.28044089       0.39728879 </v>
   <v>       0.69225819       0.40633276       0.34490844 </v>
   <v>       0.94238093       0.40545185       0.02364892 </v>
   <v>       0.94222957       0.53044098       0.07776293 </v>
   <v>       0.69201597       0.65541706       0.02369589 </v>
   <v>       0.93958816       0.40680114       0.13104501 </v>
   <v>       0.94223750       0.53043871       0.18458530 </v>
   <v>       0.69221084       0.65668733       0.13118159 </v>
   <v>       0.94266912       0.40525438       0.23794958 </v>
   <v>       0.94223324       0.53044243       0.29129860 </v>
   <v>       0.69204160       0.65522755       0.23798670 </v>
   <v>       0.94393909       0.40460492       0.34479739 </v>
   <v>       0.94223527       0.53044044       0.39722097 </v>
   <v>       0.69220886       0.65455232       0.34490857 </v>
   <v>       0.94209607       0.65541597       0.02365847 </v>
   <v>       0.94223767       0.78043836       0.07779031 </v>
   <v>       0.69248645       0.90544406       0.02369938 </v>
   <v>       0.94486934       0.65408354       0.13104507 </v>
   <v>       0.94223255       0.78044252       0.18455418 </v>
   <v>       0.69225121       0.90419710       0.13118278 </v>
   <v>       0.94179927       0.65563072       0.23794995 </v>
   <v>       0.94223342       0.78044222       0.29133946 </v>
   <v>       0.69242495       0.90565785       0.23798556 </v>
   <v>       0.94052821       0.65627942       0.34479740 </v>
   <v>       0.94223429       0.78044095       0.39728879 </v>
   <v>       0.69225796       0.90633290       0.34490831 </v>
   <v>       0.94238147       0.90545177       0.02364881 </v>
   <v>       0.93958819       0.90680117       0.13104494 </v>
   <v>       0.94266867       0.90525436       0.23794978 </v>
   <v>       0.94393854       0.90460513       0.34479743 </v>
   <v>       0.19954897       0.05732728       0.48962704 </v>
   <v>       0.19914042       0.22443055       0.44217992 </v>
   <v>       0.19963266       0.05725204       0.58637409 </v>
   <v>       0.19971635       0.22391094       0.53599833 </v>
   <v>       0.19921584       0.05752530       0.68475498 </v>
   <v>       0.19938373       0.22408741       0.63625998 </v>
   <v>       0.19913099       0.05765976       0.78232624 </v>
   <v>       0.19917455       0.22425239       0.73388383 </v>
   <v>       0.19925969       0.05748871       0.88249775 </v>
   <v>       0.19937045       0.22423492       0.83223182 </v>
   <v>       0.19913566       0.05761450       0.97620105 </v>
   <v>       0.19936845       0.22404584       0.92891760 </v>
   <v>       0.53217156       0.05641740       0.48984291 </v>
   <v>       0.53323669       0.22326708       0.44224923 </v>
   <v>       0.53167607       0.05657604       0.58662470 </v>
   <v>       0.53369469       0.22204258       0.53663634 </v>
   <v>       0.53302737       0.05558334       0.68440386 </v>
   <v>       0.53277409       0.22259516       0.63578255 </v>
   <v>       0.53197317       0.05642502       0.78274645 </v>
   <v>       0.53300439       0.22220072       0.73421979 </v>
   <v>       0.53344470       0.05548512       0.88191315 </v>
   <v>       0.53181876       0.22295507       0.83186076 </v>
   <v>       0.53356063       0.05653211       0.97631285 </v>
   <v>       0.53250567       0.22291096       0.92861404 </v>
   <v>       0.19954094       0.39065642       0.48961648 </v>
   <v>       0.19903561       0.55794863       0.44222105 </v>
   <v>       0.19948145       0.39070358       0.58639877 </v>
   <v>       0.19972113       0.55726952       0.53599639 </v>
   <v>       0.19927939       0.39085896       0.68470569 </v>
   <v>       0.19950595       0.55739108       0.63626499 </v>
   <v>       0.19915460       0.39095855       0.78234263 </v>
   <v>       0.19918606       0.55764030       0.73385058 </v>
   <v>       0.19938649       0.39073774       0.88245720 </v>
   <v>       0.19914229       0.55768402       0.83226670 </v>
   <v>       0.19943970       0.39070738       0.97622408 </v>
   <v>       0.19942531       0.55737100       0.92893616 </v>
   <v>       0.86684649       0.05843014       0.48983242 </v>
   <v>       0.86523108       0.22500385       0.44227619 </v>
   <v>       0.86750559       0.05795931       0.58661986 </v>
   <v>       0.86529377       0.22581948       0.53666565 </v>
   <v>       0.86543667       0.05928698       0.68438093 </v>
   <v>       0.86625636       0.22525963       0.63581512 </v>
   <v>       0.86604115       0.05853958       0.78284779 </v>
   <v>       0.86539109       0.22600600       0.73426410 </v>
   <v>       0.86540632       0.05910840       0.88191346 </v>
   <v>       0.86730232       0.22478492       0.83199650 </v>
   <v>       0.86555108       0.05803667       0.97635119 </v>
   <v>       0.86615186       0.22514820       0.92874318 </v>
   <v>       0.53214684       0.38974808       0.48984901 </v>
   <v>       0.53381939       0.55629340       0.44231182 </v>
   <v>       0.53172238       0.38990330       0.58662944 </v>
   <v>       0.53400380       0.55532362       0.53659112 </v>
   <v>       0.53317333       0.38882842       0.68433018 </v>
   <v>       0.53317375       0.55612173       0.63584724 </v>
   <v>       0.53231634       0.38946095       0.78282475 </v>
   <v>       0.53322943       0.55532321       0.73420151 </v>
   <v>       0.53346705       0.38892947       0.88193874 </v>
   <v>       0.53178344       0.55632209       0.83195719 </v>
   <v>       0.53339261       0.38996705       0.97631244 </v>
   <v>       0.53232403       0.55630902       0.92872852 </v>
   <v>       0.19950599       0.72407576       0.48964434 </v>
   <v>       0.19895112       0.89119524       0.44222601 </v>
   <v>       0.19978048       0.72382357       0.58639149 </v>
   <v>       0.19974695       0.89048163       0.53603422 </v>
   <v>       0.19925103       0.72411414       0.68473251 </v>
   <v>       0.19960355       0.89059079       0.63630225 </v>
   <v>       0.19929136       0.72430987       0.78232035 </v>
   <v>       0.19929772       0.89095034       0.73389537 </v>
   <v>       0.19958678       0.72411331       0.88253012 </v>
   <v>       0.19925378       0.89094371       0.83222501 </v>
   <v>       0.19909416       0.72416632       0.97621765 </v>
   <v>       0.19946983       0.89067981       0.92890624 </v>
   <v>       0.86694555       0.39167328       0.48985966 </v>
   <v>       0.86531851       0.55840264       0.44228147 </v>
   <v>       0.86751454       0.39146126       0.58659133 </v>
   <v>       0.86527928       0.55927134       0.53669023 </v>
   <v>       0.86570990       0.39259446       0.68438677 </v>
   <v>       0.86614280       0.55875914       0.63582424 </v>
   <v>       0.86605008       0.39164076       0.78287654 </v>
   <v>       0.86543174       0.55931157       0.73425269 </v>
   <v>       0.86559503       0.39229496       0.88197318 </v>
   <v>       0.86721484       0.55809853       0.83197304 </v>
   <v>       0.86544907       0.39161889       0.97631042 </v>
   <v>       0.86643026       0.55843884       0.92871312 </v>
   <v>       0.53232392       0.72313597       0.48988802 </v>
   <v>       0.53347718       0.88977123       0.44226119 </v>
   <v>       0.53184071       0.72315866       0.58662143 </v>
   <v>       0.53390609       0.88869635       0.53660396 </v>
   <v>       0.53285804       0.72240526       0.68443018 </v>
   <v>       0.53283635       0.88935491       0.63581938 </v>
   <v>       0.53233540       0.72281847       0.78282149 </v>
   <v>       0.53316871       0.88878793       0.73418067 </v>
   <v>       0.53341239       0.72233036       0.88190851 </v>
   <v>       0.53141109       0.88989918       0.83188827 </v>
   <v>       0.53348040       0.72319668       0.97633148 </v>
   <v>       0.53235491       0.88963518       0.92869695 </v>
   <v>       0.86687211       0.72511092       0.48985348 </v>
   <v>       0.86527259       0.89164866       0.44227955 </v>
   <v>       0.86744386       0.72479231       0.58662595 </v>
   <v>       0.86513565       0.89250975       0.53669405 </v>
   <v>       0.86559104       0.72599346       0.68440902 </v>
   <v>       0.86621893       0.89200666       0.63581811 </v>
   <v>       0.86592755       0.72517820       0.78284323 </v>
   <v>       0.86553564       0.89248291       0.73427279 </v>
   <v>       0.86526112       0.72581205       0.88195104 </v>
   <v>       0.86718723       0.89145666       0.83197962 </v>
   <v>       0.86555814       0.72478109       0.97634683 </v>
   <v>       0.86604447       0.89202559       0.92870547 </v>
   <v>       0.44226591       0.03042111       0.02476290 </v>
   <v>       0.44223329       0.03043988       0.13119978 </v>
   <v>       0.44223357       0.03044244       0.23796471 </v>
   <v>       0.44223439       0.03044129       0.34475289 </v>
   <v>       0.44226687       0.28042187       0.02476941 </v>
   <v>       0.44223218       0.28044095       0.13120312 </v>
   <v>       0.44223384       0.28044185       0.23795840 </v>
   <v>       0.44223433       0.28044162       0.34480016 </v>
   <v>       0.44226644       0.53042097       0.02476339 </v>
   <v>       0.44223145       0.53043993       0.13120085 </v>
   <v>       0.44223377       0.53044195       0.23796563 </v>
   <v>       0.44223429       0.53044135       0.34475307 </v>
   <v>       0.44226591       0.78042260       0.02477004 </v>
   <v>       0.44222938       0.78044167       0.13120397 </v>
   <v>       0.44223418       0.78044232       0.23795862 </v>
   <v>       0.44223393       0.78044189       0.34480014 </v>
   <v>       0.94226645       0.03042096       0.02476336 </v>
   <v>       0.94223152       0.03043985       0.13120084 </v>
   <v>       0.94223362       0.03044209       0.23796563 </v>
   <v>       0.94223432       0.03044130       0.34475306 </v>
   <v>       0.94226592       0.28042257       0.02477006 </v>
   <v>       0.94222962       0.28044127       0.13120399 </v>
   <v>       0.94223497       0.28044174       0.23795868 </v>
   <v>       0.94223394       0.28044161       0.34480020 </v>
   <v>       0.94226589       0.53042113       0.02476301 </v>
   <v>       0.94223308       0.53044007       0.13119989 </v>
   <v>       0.94223431       0.53044167       0.23796508 </v>
   <v>       0.94223388       0.53044178       0.34475309 </v>
   <v>       0.94226682       0.78042190       0.02476939 </v>
   <v>       0.94223178       0.78044136       0.13120307 </v>
   <v>       0.94223372       0.78044240       0.23795835 </v>
   <v>       0.94223386       0.78044189       0.34480014 </v>
  </varray>
 </structure>
</modeling>
