unknown system                          
           1
    -8.907327    8.907327    0.000000
   -17.814655    0.000000    0.000000
     0.000000    0.000000   42.285424
   Cl   Na   O 
    32   204    32
Direct configuration=     1
   0.19222855  0.03044442  0.07696930
   0.19223151  0.03044196  0.18450639
   0.19223264  0.03044237  0.29123522
   0.19223223  0.03044277  0.39680210
   0.19225175  0.28042321  0.07699985
   0.19223213  0.28044274  0.18450751
   0.19223223  0.28044294  0.29121037
   0.19223231  0.28044275  0.39687051
   0.19223020  0.53044213  0.07696990
   0.19223221  0.53044245  0.18450641
   0.19223263  0.53044250  0.29123517
   0.19223222  0.53044281  0.39680211
   0.19225168  0.78042222  0.07699986
   0.19223146  0.78044394  0.18450726
   0.19223869  0.78043772  0.29120489
   0.19223223  0.78044279  0.39687046
   0.69223036  0.03044229  0.07696979
   0.69223248  0.03044263  0.18450636
   0.69223286  0.03044245  0.29123522
   0.69223219  0.03044278  0.39680210
   0.69225153  0.28042231  0.07699988
   0.69223149  0.28044392  0.18450732
   0.69223858  0.28043777  0.29120489
   0.69223221  0.28044282  0.39687047
   0.69222897  0.53044431  0.07696944
   0.69223185  0.53044207  0.18450645
   0.69223264  0.53044254  0.29123517
   0.69223210  0.53044282  0.39680210
   0.69225245  0.78042253  0.07699991
   0.69223078  0.78044462  0.18450773
   0.69223870  0.78043765  0.29120493
   0.69223217  0.78044287  0.39687047
   0.44222938  0.03044116  0.07776274
   0.19201587  0.15541702  0.02369589
   0.44223761  0.03043866  0.18458503
   0.19221106  0.15668706  0.13118177
   0.44223347  0.03044224  0.29129842
   0.19204168  0.15522847  0.23798586
   0.44223505  0.03044056  0.39722087
   0.19220879  0.15455245  0.34490848
   0.44209617  0.15541597  0.02365843
   0.44223862  0.28043742  0.07779037
   0.19248640  0.40544401  0.02369942
   0.44486964  0.15408314  0.13104524
   0.44223400  0.28044122  0.18455418
   0.19225119  0.40419806  0.13118239
   0.44179765  0.15563142  0.23794911
   0.44223440  0.28044129  0.29133951
   0.19242899  0.40564922  0.23798426
   0.44052828  0.15627942  0.34479732
   0.44223420  0.28044098  0.39728879
   0.19225793  0.40633267  0.34490831
   0.44238154  0.40545169  0.02364886
   0.44223810  0.53043787  0.07776373
   0.19201758  0.65541694  0.02369555
   0.43958918  0.40680049  0.13104509
   0.44222238  0.53044777  0.18458677
   0.19221147  0.65668679  0.13118198
   0.44266875  0.40525410  0.23794978
   0.44223326  0.53044245  0.29129881
   0.19204051  0.65522830  0.23798650
   0.44393881  0.40460499  0.34479747
   0.44223510  0.53044050  0.39722102
   0.19220877  0.65455237  0.34490857
   0.44209711  0.65541588  0.02365880
   0.44222355  0.78044584  0.07779164
   0.19248629  0.90544454  0.02369962
   0.44488015  0.65407629  0.13104447
   0.44224031  0.78043956  0.18455498
   0.19224739  0.90419361  0.13119082
   0.44179875  0.65563108  0.23794974
   0.44223419  0.78044220  0.29133945
   0.19242925  0.90564931  0.23798462
   0.44052843  0.65627937  0.34479740
   0.44223420  0.78044103  0.39728878
   0.19225812  0.90633287  0.34490838
   0.44238076  0.90545192  0.02364891
   0.43959049  0.90680012  0.13104547
   0.44266894  0.90525468  0.23794899
   0.44393873  0.90460512  0.34479733
   0.94223795  0.03043803  0.07776368
   0.69201767  0.15541683  0.02369554
   0.94222234  0.03044777  0.18458675
   0.69221197  0.15668651  0.13118198
   0.94223340  0.03044228  0.29129881
   0.69204075  0.15522776  0.23798663
   0.94223515  0.03044049  0.39722102
   0.69220878  0.15455231  0.34490857
   0.94209730  0.15541574  0.02365883
   0.94222446  0.28044489  0.07779165
   0.69248638  0.40544440  0.02369964
   0.94488024  0.15407594  0.13104450
   0.94224173  0.28043827  0.18455499
   0.69224764  0.40419307  0.13119096
   0.94179972  0.15563043  0.23794991
   0.94223519  0.28044126  0.29133958
   0.69242968  0.40564911  0.23798465
   0.94052847  0.15627935  0.34479739
   0.94223434  0.28044089  0.39728879
   0.69225819  0.40633276  0.34490844
   0.94238093  0.40545185  0.02364892
   0.94222957  0.53044098  0.07776293
   0.69201597  0.65541706  0.02369589
   0.93958816  0.40680114  0.13104501
   0.94223750  0.53043871  0.18458530
   0.69221084  0.65668733  0.13118159
   0.94266912  0.40525438  0.23794958
   0.94223324  0.53044243  0.29129860
   0.69204160  0.65522755  0.23798670
   0.94393909  0.40460492  0.34479739
   0.94223527  0.53044044  0.39722097
   0.69220886  0.65455232  0.34490857
   0.94209607  0.65541597  0.02365847
   0.94223767  0.78043836  0.07779031
   0.69248645  0.90544406  0.02369938
   0.94486934  0.65408354  0.13104507
   0.94223255  0.78044252  0.18455418
   0.69225121  0.90419710  0.13118278
   0.94179927  0.65563072  0.23794995
   0.94223342  0.78044222  0.29133946
   0.69242495  0.90565785  0.23798556
   0.94052821  0.65627942  0.34479740
   0.94223429  0.78044095  0.39728879
   0.69225796  0.90633290  0.34490831
   0.94238147  0.90545177  0.02364881
   0.93958819  0.90680117  0.13104494
   0.94266867  0.90525436  0.23794978
   0.94393854  0.90460513  0.34479743
   0.19954897  0.05732728  0.48962704
   0.19914042  0.22443055  0.44217992
   0.19963266  0.05725204  0.58637409
   0.19971635  0.22391094  0.53599833
   0.19921584  0.05752530  0.68475498
   0.19938373  0.22408741  0.63625998
   0.19913099  0.05765976  0.78232624
   0.19917455  0.22425239  0.73388383
   0.19925969  0.05748871  0.88249775
   0.19937045  0.22423492  0.83223182
   0.19913566  0.05761450  0.97620105
   0.19936845  0.22404584  0.92891760
   0.53217156  0.05641740  0.48984291
   0.53323669  0.22326708  0.44224923
   0.53167607  0.05657604  0.58662470
   0.53369469  0.22204258  0.53663634
   0.53302737  0.05558334  0.68440386
   0.53277409  0.22259516  0.63578255
   0.53197317  0.05642502  0.78274645
   0.53300439  0.22220072  0.73421979
   0.53344470  0.05548512  0.88191315
   0.53181876  0.22295507  0.83186076
   0.53356063  0.05653211  0.97631285
   0.53250567  0.22291096  0.92861404
   0.19954094  0.39065642  0.48961648
   0.19903561  0.55794863  0.44222105
   0.19948145  0.39070358  0.58639877
   0.19972113  0.55726952  0.53599639
   0.19927939  0.39085896  0.68470569
   0.19950595  0.55739108  0.63626499
   0.19915460  0.39095855  0.78234263
   0.19918606  0.55764030  0.73385058
   0.19938649  0.39073774  0.88245720
   0.19914229  0.55768402  0.83226670
   0.19943970  0.39070738  0.97622408
   0.19942531  0.55737100  0.92893616
   0.86684649  0.05843014  0.48983242
   0.86523108  0.22500385  0.44227619
   0.86750559  0.05795931  0.58661986
   0.86529377  0.22581948  0.53666565
   0.86543667  0.05928698  0.68438093
   0.86625636  0.22525963  0.63581512
   0.86604115  0.05853958  0.78284779
   0.86539109  0.22600600  0.73426410
   0.86540632  0.05910840  0.88191346
   0.86730232  0.22478492  0.83199650
   0.86555108  0.05803667  0.97635119
   0.86615186  0.22514820  0.92874318
   0.53214684  0.38974808  0.48984901
   0.53381939  0.55629340  0.44231182
   0.53172238  0.38990330  0.58662944
   0.53400380  0.55532362  0.53659112
   0.53317333  0.38882842  0.68433018
   0.53317375  0.55612173  0.63584724
   0.53231634  0.38946095  0.78282475
   0.53322943  0.55532321  0.73420151
   0.53346705  0.38892947  0.88193874
   0.53178344  0.55632209  0.83195719
   0.53339261  0.38996705  0.97631244
   0.53232403  0.55630902  0.92872852
   0.19950599  0.72407576  0.48964434
   0.19895112  0.89119524  0.44222601
   0.19978048  0.72382357  0.58639149
   0.19974695  0.89048163  0.53603422
   0.19925103  0.72411414  0.68473251
   0.19960355  0.89059079  0.63630225
   0.19929136  0.72430987  0.78232035
   0.19929772  0.89095034  0.73389537
   0.19958678  0.72411331  0.88253012
   0.19925378  0.89094371  0.83222501
   0.19909416  0.72416632  0.97621765
   0.19946983  0.89067981  0.92890624
   0.86694555  0.39167328  0.48985966
   0.86531851  0.55840264  0.44228147
   0.86751454  0.39146126  0.58659133
   0.86527928  0.55927134  0.53669023
   0.86570990  0.39259446  0.68438677
   0.86614280  0.55875914  0.63582424
   0.86605008  0.39164076  0.78287654
   0.86543174  0.55931157  0.73425269
   0.86559503  0.39229496  0.88197318
   0.86721484  0.55809853  0.83197304
   0.86544907  0.39161889  0.97631042
   0.86643026  0.55843884  0.92871312
   0.53232392  0.72313597  0.48988802
   0.53347718  0.88977123  0.44226119
   0.53184071  0.72315866  0.58662143
   0.53390609  0.88869635  0.53660396
   0.53285804  0.72240526  0.68443018
   0.53283635  0.88935491  0.63581938
   0.53233540  0.72281847  0.78282149
   0.53316871  0.88878793  0.73418067
   0.53341239  0.72233036  0.88190851
   0.53141109  0.88989918  0.83188827
   0.53348040  0.72319668  0.97633148
   0.53235491  0.88963518  0.92869695
   0.86687211  0.72511092  0.48985348
   0.86527259  0.89164866  0.44227955
   0.86744386  0.72479231  0.58662595
   0.86513565  0.89250975  0.53669405
   0.86559104  0.72599346  0.68440902
   0.86621893  0.89200666  0.63581811
   0.86592755  0.72517820  0.78284323
   0.86553564  0.89248291  0.73427279
   0.86526112  0.72581205  0.88195104
   0.86718723  0.89145666  0.83197962
   0.86555814  0.72478109  0.97634683
   0.86604447  0.89202559  0.92870547
   0.44226591  0.03042111  0.02476290
   0.44223329  0.03043988  0.13119978
   0.44223357  0.03044244  0.23796471
   0.44223439  0.03044129  0.34475289
   0.44226687  0.28042187  0.02476941
   0.44223218  0.28044095  0.13120312
   0.44223384  0.28044185  0.23795840
   0.44223433  0.28044162  0.34480016
   0.44226644  0.53042097  0.02476339
   0.44223145  0.53043993  0.13120085
   0.44223377  0.53044195  0.23796563
   0.44223429  0.53044135  0.34475307
   0.44226591  0.78042260  0.02477004
   0.44222938  0.78044167  0.13120397
   0.44223418  0.78044232  0.23795862
   0.44223393  0.78044189  0.34480014
   0.94226645  0.03042096  0.02476336
   0.94223152  0.03043985  0.13120084
   0.94223362  0.03044209  0.23796563
   0.94223432  0.03044130  0.34475306
   0.94226592  0.28042257  0.02477006
   0.94222962  0.28044127  0.13120399
   0.94223497  0.28044174  0.23795868
   0.94223394  0.28044161  0.34480020
   0.94226589  0.53042113  0.02476301
   0.94223308  0.53044007  0.13119989
   0.94223431  0.53044167  0.23796508
   0.94223388  0.53044178  0.34475309
   0.94226682  0.78042190  0.02476939
   0.94223178  0.78044136  0.13120307
   0.94223372  0.78044240  0.23795835
   0.94223386  0.78044189  0.34480014
