  20  20   0   0
  0.3614570E+02  0.6303685E-09  0.6303685E-09  0.3638543E-08  0.5000000E-15
  1.000000000000000E-004
  CAR 
 unknown system                          
      6.76032797    -18.73691211  301     -1.27434579      1.00000000
    -18.737  0.0000E+00  0.0000E+00
    -18.652  0.0000E+00  0.0000E+00
    -18.567  0.0000E+00  0.0000E+00
    -18.482  0.0000E+00  0.0000E+00
    -18.397  0.0000E+00  0.0000E+00
    -18.312  0.0000E+00  0.0000E+00
    -18.227  0.0000E+00  0.0000E+00
    -18.142  0.1742E-14  0.1480E-15
    -18.057  0.1599E-10  0.1360E-11
    -17.972  0.3708E-07  0.3153E-08
    -17.887  0.2247E-04  0.1913E-05
    -17.802  0.3671E-02  0.3139E-03
    -17.717  0.1670E+00  0.1451E-01
    -17.632  0.2196E+01  0.2012E+00
    -17.547  0.9091E+01  0.9738E+00
    -17.462  0.1666E+02  0.2390E+01
    -17.377  0.2256E+02  0.4307E+01
    -17.292  0.1591E+02  0.5659E+01
    -17.207  0.3746E+01  0.5978E+01
    -17.122  0.2580E+00  0.6000E+01
    -17.037  0.4907E-02  0.6000E+01
    -16.952  0.1741E-03  0.6000E+01
    -16.867  0.1670E-01  0.6001E+01
    -16.782  0.5190E+00  0.6046E+01
    -16.697  0.4823E+01  0.6455E+01
    -16.612  0.1501E+02  0.7731E+01
    -16.527  0.1757E+02  0.9224E+01
    -16.442  0.7858E+01  0.9892E+01
    -16.357  0.1236E+01  0.9997E+01
    -16.272  0.7420E+00  0.1006E+02
    -16.187  0.5157E+01  0.1050E+02
    -16.102  0.1062E+02  0.1140E+02
    -16.017  0.6322E+01  0.1194E+02
    -15.932  0.3978E+01  0.1228E+02
    -15.847  0.9648E+01  0.1310E+02
    -15.762  0.8446E+01  0.1381E+02
    -15.677  0.2050E+01  0.1399E+02
    -15.592  0.1339E+00  0.1400E+02
    -15.507  0.2277E-02  0.1400E+02
    -15.422  0.1401E-02  0.1400E+02
    -15.337  0.9411E-01  0.1401E+02
    -15.252  0.1650E+01  0.1415E+02
    -15.167  0.7754E+01  0.1481E+02
    -15.082  0.1005E+02  0.1566E+02
    -14.997  0.3616E+01  0.1597E+02
    -14.912  0.3534E+00  0.1600E+02
    -14.827  0.9072E-02  0.1600E+02
    -14.742  0.5928E-04  0.1600E+02
    -14.657  0.9634E-07  0.1600E+02
    -14.572  0.3833E-10  0.1600E+02
    -14.487  0.4137E-14  0.1600E+02
    -14.402  0.0000E+00  0.1600E+02
    -14.317  0.0000E+00  0.1600E+02
    -14.232  0.0000E+00  0.1600E+02
    -14.147  0.0000E+00  0.1600E+02
    -14.062  0.0000E+00  0.1600E+02
    -13.977  0.0000E+00  0.1600E+02
    -13.892  0.0000E+00  0.1600E+02
    -13.807  0.0000E+00  0.1600E+02
    -13.722  0.0000E+00  0.1600E+02
    -13.637  0.0000E+00  0.1600E+02
    -13.552  0.0000E+00  0.1600E+02
    -13.467  0.0000E+00  0.1600E+02
    -13.382  0.0000E+00  0.1600E+02
    -13.298  0.0000E+00  0.1600E+02
    -13.213  0.0000E+00  0.1600E+02
    -13.128  0.0000E+00  0.1600E+02
    -13.043  0.0000E+00  0.1600E+02
    -12.958  0.0000E+00  0.1600E+02
    -12.873  0.0000E+00  0.1600E+02
    -12.788  0.0000E+00  0.1600E+02
    -12.703  0.0000E+00  0.1600E+02
    -12.618  0.0000E+00  0.1600E+02
    -12.533  0.0000E+00  0.1600E+02
    -12.448  0.0000E+00  0.1600E+02
    -12.363  0.0000E+00  0.1600E+02
    -12.278  0.0000E+00  0.1600E+02
    -12.193  0.0000E+00  0.1600E+02
    -12.108  0.0000E+00  0.1600E+02
    -12.023  0.0000E+00  0.1600E+02
    -11.938  0.0000E+00  0.1600E+02
    -11.853  0.0000E+00  0.1600E+02
    -11.768  0.0000E+00  0.1600E+02
    -11.683  0.0000E+00  0.1600E+02
    -11.598  0.0000E+00  0.1600E+02
    -11.513  0.0000E+00  0.1600E+02
    -11.428  0.0000E+00  0.1600E+02
    -11.343  0.0000E+00  0.1600E+02
    -11.258  0.0000E+00  0.1600E+02
    -11.173  0.0000E+00  0.1600E+02
    -11.088  0.0000E+00  0.1600E+02
    -11.003  0.0000E+00  0.1600E+02
    -10.918  0.0000E+00  0.1600E+02
    -10.833  0.0000E+00  0.1600E+02
    -10.748  0.0000E+00  0.1600E+02
    -10.663  0.0000E+00  0.1600E+02
    -10.578  0.0000E+00  0.1600E+02
    -10.493  0.0000E+00  0.1600E+02
    -10.408  0.0000E+00  0.1600E+02
    -10.323  0.0000E+00  0.1600E+02
    -10.238  0.0000E+00  0.1600E+02
    -10.153  0.0000E+00  0.1600E+02
    -10.068  0.0000E+00  0.1600E+02
     -9.983  0.0000E+00  0.1600E+02
     -9.898  0.0000E+00  0.1600E+02
     -9.813  0.0000E+00  0.1600E+02
     -9.728  0.0000E+00  0.1600E+02
     -9.643  0.0000E+00  0.1600E+02
     -9.558  0.0000E+00  0.1600E+02
     -9.473  0.0000E+00  0.1600E+02
     -9.388  0.0000E+00  0.1600E+02
     -9.303  0.0000E+00  0.1600E+02
     -9.218  0.0000E+00  0.1600E+02
     -9.133  0.0000E+00  0.1600E+02
     -9.048  0.0000E+00  0.1600E+02
     -8.963  0.0000E+00  0.1600E+02
     -8.878  0.0000E+00  0.1600E+02
     -8.793  0.0000E+00  0.1600E+02
     -8.708  0.0000E+00  0.1600E+02
     -8.623  0.0000E+00  0.1600E+02
     -8.538  0.0000E+00  0.1600E+02
     -8.453  0.0000E+00  0.1600E+02
     -8.368  0.0000E+00  0.1600E+02
     -8.283  0.0000E+00  0.1600E+02
     -8.198  0.0000E+00  0.1600E+02
     -8.113  0.0000E+00  0.1600E+02
     -8.028  0.0000E+00  0.1600E+02
     -7.943  0.0000E+00  0.1600E+02
     -7.858  0.0000E+00  0.1600E+02
     -7.773  0.0000E+00  0.1600E+02
     -7.688  0.0000E+00  0.1600E+02
     -7.603  0.0000E+00  0.1600E+02
     -7.518  0.0000E+00  0.1600E+02
     -7.433  0.0000E+00  0.1600E+02
     -7.348  0.0000E+00  0.1600E+02
     -7.263  0.0000E+00  0.1600E+02
     -7.178  0.0000E+00  0.1600E+02
     -7.093  0.0000E+00  0.1600E+02
     -7.008  0.0000E+00  0.1600E+02
     -6.923  0.0000E+00  0.1600E+02
     -6.838  0.1800E-12  0.1600E+02
     -6.753  0.9056E-09  0.1600E+02
     -6.668  0.1122E-05  0.1600E+02
     -6.583  0.3496E-03  0.1600E+02
     -6.498  0.2825E-01  0.1600E+02
     -6.413  0.6275E+00  0.1606E+02
     -6.328  0.4282E+01  0.1642E+02
     -6.243  0.1132E+02  0.1738E+02
     -6.158  0.1740E+02  0.1886E+02
     -6.073  0.1994E+02  0.2055E+02
     -5.988  0.1378E+02  0.2173E+02
     -5.903  0.9756E+01  0.2256E+02
     -5.818  0.1923E+02  0.2419E+02
     -5.733  0.1807E+02  0.2573E+02
     -5.648  0.1103E+02  0.2666E+02
     -5.563  0.1043E+02  0.2755E+02
     -5.478  0.4645E+01  0.2795E+02
     -5.393  0.6481E+00  0.2800E+02
     -5.308  0.9442E+00  0.2808E+02
     -5.223  0.9088E+01  0.2885E+02
     -5.138  0.2724E+02  0.3117E+02
     -5.053  0.2540E+02  0.3333E+02
     -4.968  0.7288E+01  0.3395E+02
     -4.883  0.6196E+00  0.3400E+02
     -4.798  0.1487E-01  0.3400E+02
     -4.713  0.9647E-04  0.3400E+02
     -4.628  0.1640E-06  0.3400E+02
     -4.543  0.7152E-10  0.3400E+02
     -4.458  0.7402E-14  0.3400E+02
     -4.373  0.8709E-15  0.3400E+02
     -4.288  0.1144E-10  0.3400E+02
     -4.203  0.3284E-07  0.3400E+02
     -4.118  0.2389E-04  0.3400E+02
     -4.034  0.4535E-02  0.3400E+02
     -3.949  0.2336E+00  0.3402E+02
     -3.864  0.3416E+01  0.3431E+02
     -3.779  0.1482E+02  0.3557E+02
     -3.694  0.2004E+02  0.3727E+02
     -3.609  0.1282E+02  0.3836E+02
     -3.524  0.1831E+02  0.3992E+02
     -3.439  0.2636E+02  0.4216E+02
     -3.354  0.2608E+02  0.4438E+02
     -3.269  0.1522E+02  0.4567E+02
     -3.184  0.3588E+01  0.4598E+02
     -3.099  0.2802E+00  0.4600E+02
     -3.014  0.6497E-02  0.4600E+02
     -2.929  0.4248E-04  0.4600E+02
     -2.844  0.2918E-03  0.4600E+02
     -2.759  0.2868E-01  0.4600E+02
     -2.674  0.7675E+00  0.4607E+02
     -2.589  0.6180E+01  0.4659E+02
     -2.504  0.1797E+02  0.4812E+02
     -2.419  0.2403E+02  0.5016E+02
     -2.334  0.1633E+02  0.5155E+02
     -2.249  0.5307E+01  0.5200E+02
     -2.164  0.4357E+01  0.5237E+02
     -2.079  0.1195E+02  0.5339E+02
     -1.994  0.1952E+02  0.5505E+02
     -1.909  0.2123E+02  0.5685E+02
     -1.824  0.1170E+02  0.5785E+02
     -1.739  0.3075E+01  0.5811E+02
     -1.654  0.6378E+00  0.5816E+02
     -1.569  0.4259E+00  0.5820E+02
     -1.484  0.3688E+01  0.5851E+02
     -1.399  0.1811E+02  0.6005E+02
     -1.314  0.3381E+02  0.6292E+02
     -1.229  0.2126E+02  0.6473E+02
     -1.144  0.4838E+01  0.6514E+02
     -1.059  0.1632E+01  0.6528E+02
     -0.974  0.3360E+01  0.6557E+02
     -0.889  0.3492E+01  0.6586E+02
     -0.804  0.1415E+01  0.6598E+02
     -0.719  0.1969E+00  0.6600E+02
     -0.634  0.8109E-02  0.6600E+02
     -0.549  0.8965E-04  0.6600E+02
     -0.464  0.2526E-06  0.6600E+02
     -0.379  0.3110E-06  0.6600E+02
     -0.294  0.8984E-04  0.6600E+02
     -0.209  0.6529E-02  0.6600E+02
     -0.124  0.1231E+00  0.6601E+02
     -0.039  0.6501E+00  0.6607E+02
      0.046  0.1425E+01  0.6619E+02
      0.131  0.2956E+01  0.6644E+02
      0.216  0.3627E+01  0.6675E+02
      0.301  0.2607E+01  0.6697E+02
      0.386  0.3047E+01  0.6723E+02
      0.471  0.3676E+01  0.6754E+02
      0.556  0.3171E+01  0.6781E+02
      0.641  0.1782E+01  0.6796E+02
      0.726  0.4319E+00  0.6800E+02
      0.811  0.8052E-01  0.6800E+02
      0.896  0.6316E+00  0.6806E+02
      0.981  0.2854E+01  0.6830E+02
      1.066  0.5742E+01  0.6879E+02
      1.151  0.5570E+01  0.6926E+02
      1.236  0.3211E+01  0.6953E+02
      1.321  0.2343E+01  0.6973E+02
      1.406  0.1841E+01  0.6989E+02
      1.491  0.1911E+01  0.7005E+02
      1.576  0.3630E+01  0.7036E+02
      1.661  0.4682E+01  0.7076E+02
      1.746  0.3630E+01  0.7107E+02
      1.831  0.3347E+01  0.7135E+02
      1.916  0.3604E+01  0.7166E+02
      2.001  0.3955E+01  0.7199E+02
      2.086  0.3793E+01  0.7232E+02
      2.171  0.5061E+01  0.7275E+02
      2.256  0.9413E+01  0.7355E+02
      2.341  0.1073E+02  0.7446E+02
      2.426  0.7454E+01  0.7509E+02
      2.511  0.6034E+01  0.7561E+02
      2.596  0.5452E+01  0.7607E+02
      2.681  0.7444E+01  0.7670E+02
      2.766  0.8476E+01  0.7742E+02
      2.851  0.6604E+01  0.7798E+02
      2.936  0.5988E+01  0.7849E+02
      3.021  0.6928E+01  0.7908E+02
      3.106  0.7261E+01  0.7970E+02
      3.191  0.7653E+01  0.8035E+02
      3.276  0.8355E+01  0.8106E+02
      3.361  0.1045E+02  0.8195E+02
      3.446  0.1288E+02  0.8304E+02
      3.531  0.1215E+02  0.8407E+02
      3.616  0.7733E+01  0.8473E+02
      3.701  0.3913E+01  0.8506E+02
      3.786  0.1598E+01  0.8520E+02
      3.871  0.3574E+01  0.8550E+02
      3.956  0.7727E+01  0.8616E+02
      4.041  0.6012E+01  0.8667E+02
      4.126  0.1862E+01  0.8683E+02
      4.211  0.1157E+01  0.8693E+02
      4.296  0.3205E+01  0.8720E+02
      4.381  0.6345E+01  0.8774E+02
      4.466  0.8903E+01  0.8850E+02
      4.551  0.9561E+01  0.8931E+02
      4.636  0.9023E+01  0.9008E+02
      4.721  0.7300E+01  0.9070E+02
      4.806  0.6158E+01  0.9122E+02
      4.891  0.8845E+01  0.9197E+02
      4.976  0.7710E+01  0.9263E+02
      5.061  0.3399E+01  0.9292E+02
      5.146  0.2474E+01  0.9313E+02
      5.230  0.3437E+01  0.9342E+02
      5.315  0.7377E+01  0.9405E+02
      5.400  0.9929E+01  0.9489E+02
      5.485  0.6046E+01  0.9540E+02
      5.570  0.3554E+01  0.9571E+02
      5.655  0.2510E+01  0.9592E+02
      5.740  0.8578E+00  0.9599E+02
      5.825  0.9596E-01  0.9600E+02
      5.910  0.2997E-02  0.9600E+02
      5.995  0.2427E-04  0.9600E+02
      6.080  0.4918E-07  0.9600E+02
      6.165  0.2446E-10  0.9600E+02
      6.250  0.3048E-14  0.9600E+02
      6.335  0.0000E+00  0.9600E+02
      6.420  0.0000E+00  0.9600E+02
      6.505  0.0000E+00  0.9600E+02
      6.590  0.0000E+00  0.9600E+02
      6.675  0.0000E+00  0.9600E+02
      6.760  0.0000E+00  0.9600E+02
