   20   20    1    1
  0.3614570E+02  0.6303685E-09  0.6303685E-09  0.3638543E-08  0.5000000E-15
  1.000000000000000E-004
  CAR 
 unknown system                          
     64      7     48
 
  0.0000000E+00  0.0000000E+00  0.0000000E+00  0.8333333E-01
    1      -17.577947   1.000000
    2      -17.391889   1.000000
    3      -17.361511   1.000000
    4      -16.667476   1.000000
    5      -16.532300   1.000000
    6      -16.137959   1.000000
    7      -15.854658   1.000000
    8      -15.146359   1.000000
    9       -6.068070   1.000000
   10       -6.038915   1.000000
   11       -6.038553   1.000000
   12       -5.836202   1.000000
   13       -5.835993   1.000000
   14       -5.676117   1.000000
   15       -5.167880   1.000000
   16       -5.103381   1.000000
   17       -5.103313   1.000000
   18       -3.717313   1.000000
   19       -3.717238   1.000000
   20       -3.559467   1.000000
   21       -3.538324   1.000000
   22       -3.404939   1.000000
   23       -3.404121   1.000000
   24       -2.505206   1.000000
   25       -2.504413   1.000000
   26       -2.467164   1.000000
   27       -2.166635   1.000000
   28       -1.961594   1.000000
   29       -1.960732   1.000000
   30       -1.777940   1.000000
   31       -1.371042   0.914264
   32       -1.328526   0.778230
   33       -1.327531   0.774021
   34        0.429588   0.000000
   35        1.077054   0.000000
   36        1.961378   0.000000
   37        2.174617   0.000000
   38        2.228355   0.000000
   39        2.228856   0.000000
   40        3.120444   0.000000
   41        3.477501   0.000000
   42        3.479128   0.000000
   43        4.447306   0.000000
   44        4.447660   0.000000
   45        4.554954   0.000000
   46        4.890711   0.000000
   47        5.374166   0.000000
   48        5.376956   0.000000
 
  0.2500000E+00  0.0000000E+00  0.2220446E-15  0.1666667E+00
    1      -17.553869   1.000000
    2      -17.402347   1.000000
    3      -17.369875   1.000000
    4      -16.649816   1.000000
    5      -16.547831   1.000000
    6      -16.138766   1.000000
    7      -15.855503   1.000000
    8      -15.148774   1.000000
    9       -6.212953   1.000000
   10       -6.121314   1.000000
   11       -6.053762   1.000000
   12       -5.830965   1.000000
   13       -5.806428   1.000000
   14       -5.633810   1.000000
   15       -5.172171   1.000000
   16       -5.122581   1.000000
   17       -5.118580   1.000000
   18       -3.748587   1.000000
   19       -3.734826   1.000000
   20       -3.545165   1.000000
   21       -3.512220   1.000000
   22       -3.410103   1.000000
   23       -3.361008   1.000000
   24       -2.548925   1.000000
   25       -2.471891   1.000000
   26       -2.415627   1.000000
   27       -2.102975   1.000000
   28       -1.992084   1.000000
   29       -1.934148   1.000000
   30       -1.461582   0.995950
   31       -1.372498   0.917445
   32       -1.341771   0.829842
   33       -1.334573   0.802819
   34        0.556069   0.000000
   35        0.970073   0.000000
   36        1.662295   0.000000
   37        2.271335   0.000000
   38        2.289398   0.000000
   39        2.711131   0.000000
   40        3.108138   0.000000
   41        3.369013   0.000000
   42        3.645497   0.000000
   43        3.932537   0.000000
   44        4.467454   0.000000
   45        4.671057   0.000000
   46        4.935856   0.000000
   47        5.317968   0.000000
   48        5.512611   0.000000
 
  0.5000000E+00  0.0000000E+00  0.4440892E-15  0.8333333E-01
    1      -17.522705   1.000000
    2      -17.420472   1.000000
    3      -17.377613   1.000000
    4      -16.623206   1.000000
    5      -16.572154   1.000000
    6      -16.139795   1.000000
    7      -15.856179   1.000000
    8      -15.151284   1.000000
    9       -6.295922   1.000000
   10       -6.185039   1.000000
   11       -6.094684   1.000000
   12       -5.846371   1.000000
   13       -5.795421   1.000000
   14       -5.607944   1.000000
   15       -5.183834   1.000000
   16       -5.133019   1.000000
   17       -5.132449   1.000000
   18       -3.790723   1.000000
   19       -3.752050   1.000000
   20       -3.546185   1.000000
   21       -3.485935   1.000000
   22       -3.386610   1.000000
   23       -3.318788   1.000000
   24       -2.559057   1.000000
   25       -2.440080   1.000000
   26       -2.379269   1.000000
   27       -2.088785   1.000000
   28       -1.975924   1.000000
   29       -1.907124   1.000000
   30       -1.376568   0.925862
   31       -1.341985   0.830606
   32       -1.341384   0.828451
   33       -0.975029   0.000012
   34       -0.017364   0.000000
   35        1.423122   0.000000
   36        2.042612   0.000000
   37        2.222453   0.000000
   38        2.315876   0.000000
   39        2.643165   0.000000
   40        2.676218   0.000000
   41        3.323390   0.000000
   42        3.398269   0.000000
   43        3.465338   0.000000
   44        4.233433   0.000000
   45        4.367277   0.000000
   46        4.414170   0.000000
   47        4.866166   0.000000
   48        5.346800   0.000000
 
 -0.2775558E-16  0.3333333E+00 -0.2220446E-15  0.1666667E+00
    1      -17.539687   1.000000
    2      -17.409940   1.000000
    3      -17.373868   1.000000
    4      -16.638572   1.000000
    5      -16.557999   1.000000
    6      -16.139297   1.000000
    7      -15.855914   1.000000
    8      -15.150017   1.000000
    9       -6.257803   1.000000
   10       -6.154916   1.000000
   11       -6.073678   1.000000
   12       -5.836332   1.000000
   13       -5.799715   1.000000
   14       -5.620075   1.000000
   15       -5.177108   1.000000
   16       -5.128470   1.000000
   17       -5.125893   1.000000
   18       -3.768610   1.000000
   19       -3.743526   1.000000
   20       -3.543806   1.000000
   21       -3.496375   1.000000
   22       -3.403856   1.000000
   23       -3.340542   1.000000
   24       -2.554095   1.000000
   25       -2.456581   1.000000
   26       -2.396574   1.000000
   27       -2.096397   1.000000
   28       -1.984862   1.000000
   29       -1.921472   1.000000
   30       -1.382102   0.936234
   31       -1.344711   0.840158
   32       -1.338380   0.817420
   33       -1.248529   0.357515
   34        0.319956   0.000000
   35        1.147094   0.000000
   36        1.871053   0.000000
   37        2.168495   0.000000
   38        2.306191   0.000000
   39        2.696748   0.000000
   40        2.994823   0.000000
   41        3.279567   0.000000
   42        3.368171   0.000000
   43        3.495606   0.000000
   44        3.902106   0.000000
   45        4.310209   0.000000
   46        4.557870   0.000000
   47        4.789188   0.000000
   48        5.332444   0.000000
 
  0.2500000E+00  0.3333333E+00  0.0000000E+00  0.1666667E+00
    1      -17.517642   1.000000
    2      -17.417872   1.000000
    3      -17.384190   1.000000
    4      -16.615466   1.000000
    5      -16.579261   1.000000
    6      -16.140119   1.000000
    7      -15.856081   1.000000
    8      -15.151828   1.000000
    9       -6.308065   1.000000
   10       -6.181586   1.000000
   11       -6.092535   1.000000
   12       -5.847625   1.000000
   13       -5.837306   1.000000
   14       -5.594385   1.000000
   15       -5.164586   1.000000
   16       -5.150116   1.000000
   17       -5.141178   1.000000
   18       -3.794594   1.000000
   19       -3.769983   1.000000
   20       -3.523186   1.000000
   21       -3.441965   1.000000
   22       -3.391886   1.000000
   23       -3.352901   1.000000
   24       -2.514787   1.000000
   25       -2.462168   1.000000
   26       -2.379200   1.000000
   27       -2.068107   1.000000
   28       -1.987911   1.000000
   29       -1.906932   1.000000
   30       -1.365897   0.902293
   31       -1.348938   0.854264
   32       -1.334115   0.801020
   33       -0.922363   0.000000
   34        0.153229   0.000000
   35        1.052045   0.000000
   36        1.597916   0.000000
   37        2.426509   0.000000
   38        2.603852   0.000000
   39        2.815453   0.000000
   40        2.932912   0.000000
   41        3.180215   0.000000
   42        3.450588   0.000000
   43        3.526533   0.000000
   44        3.996854   0.000000
   45        4.478780   0.000000
   46        4.881563   0.000000
   47        5.096819   0.000000
   48        5.379749   0.000000
 
  0.5000000E+00  0.3333333E+00  0.0000000E+00  0.1666667E+00
    1      -17.523698   1.000000
    2      -17.416696   1.000000
    3      -17.380286   1.000000
    4      -16.623456   1.000000
    5      -16.571749   1.000000
    6      -16.139807   1.000000
    7      -15.856027   1.000000
    8      -15.151323   1.000000
    9       -6.296146   1.000000
   10       -6.176634   1.000000
   11       -6.089604   1.000000
   12       -5.843555   1.000000
   13       -5.820323   1.000000
   14       -5.602469   1.000000
   15       -5.173348   1.000000
   16       -5.143558   1.000000
   17       -5.132363   1.000000
   18       -3.787259   1.000000
   19       -3.761383   1.000000
   20       -3.530668   1.000000
   21       -3.465946   1.000000
   22       -3.397998   1.000000
   23       -3.337015   1.000000
   24       -2.535151   1.000000
   25       -2.454644   1.000000
   26       -2.381401   1.000000
   27       -2.082072   1.000000
   28       -1.981425   1.000000
   29       -1.910219   1.000000
   30       -1.372908   0.918323
   31       -1.348561   0.853042
   32       -1.333556   0.798803
   33       -1.012909   0.000109
   34        0.141007   0.000000
   35        1.289508   0.000000
   36        1.557700   0.000000
   37        2.304424   0.000000
   38        2.468108   0.000000
   39        2.826767   0.000000
   40        2.968494   0.000000
   41        3.195897   0.000000
   42        3.379179   0.000000
   43        3.602569   0.000000
   44        3.901186   0.000000
   45        4.368881   0.000000
   46        4.669134   0.000000
   47        4.897220   0.000000
   48        5.231762   0.000000
 
 -0.2500000E+00  0.3333333E+00  0.0000000E+00  0.1666667E+00
    1      -17.545199   1.000000
    2      -17.406464   1.000000
    3      -17.372779   1.000000
    4      -16.642995   1.000000
    5      -16.553963   1.000000
    6      -16.139106   1.000000
    7      -15.855762   1.000000
    8      -15.149565   1.000000
    9       -6.242831   1.000000
   10       -6.141165   1.000000
   11       -6.065180   1.000000
   12       -5.832958   1.000000
   13       -5.806700   1.000000
   14       -5.623796   1.000000
   15       -5.173326   1.000000
   16       -5.129474   1.000000
   17       -5.121979   1.000000
   18       -3.759511   1.000000
   19       -3.742735   1.000000
   20       -3.541445   1.000000
   21       -3.498391   1.000000
   22       -3.410454   1.000000
   23       -3.349939   1.000000
   24       -2.548139   1.000000
   25       -2.465840   1.000000
   26       -2.402970   1.000000
   27       -2.096920   1.000000
   28       -1.989586   1.000000
   29       -1.926465   1.000000
   30       -1.387983   0.945981
   31       -1.349920   0.857417
   32       -1.335873   0.807886
   33       -1.319349   0.737756
   34        0.441740   0.000000
   35        1.060635   0.000000
   36        1.781940   0.000000
   37        1.999003   0.000000
   38        2.494620   0.000000
   39        2.709339   0.000000
   40        3.062704   0.000000
   41        3.273400   0.000000
   42        3.469611   0.000000
   43        3.952011   0.000000
   44        4.568041   0.000000
   45        4.638517   0.000000
   46        4.862988   0.000000
   47        5.348954   0.000000
   48        5.601363   0.000000
