 vasp.6.2.1 16May21 (build Dec 23 2021 00:35:04) complex                        
  
 executed on             LinuxIFC date 2023.03.08  11:51:56
 running on  128 total cores
 distrk:  each k-point on  128 cores,    1 groups
 distr:  one band on NCORE=  16 cores,    8 groups


--------------------------------------------------------------------------------------------------------


 INCAR:
   AMIN = 0.010000
   ENCUT = 400.000000
   KSPACING = 0.500000
   SIGMA = 0.100000
   EDIFF = 1.00e-08
   EDIFFG = -1.00e-02
   ALGO = Fast
   GGA = PE
   PREC = Normal
   IBRION = -1
   IDIPOL = 3
   ISIF = 3
   ISMEAR = 0
   ISPIN = 0
   LMAXMIX = 6
   NELM = 150
   NPAR = 8
   NSW = 0
   NWRITE = 1
   DIPOL = 0.1909 0.2573 0.5225
   KGAMMA = .TRUE.
   LASPH = .TRUE.
   LCHARG = .FALSE.
   LDIPOL = .TRUE.
   LWAVE = .FALSE.
   LREAL = AUTO

 POTCAR:    PAW_PBE Na 08Apr2002                  
 POTCAR:    PAW_PBE O 08Apr2002                   
 POTCAR:    PAW_PBE Cl 06Sep2000                  
 POTCAR:    PAW_PBE Na 08Apr2002                  
  local pseudopotential read in
  partial core-charges read in
  partial kinetic energy density read in
  atomic valenz-charges read in
  non local Contribution for L=           0  read in
    real space projection operators read in
  non local Contribution for L=           0  read in
    real space projection operators read in
  non local Contribution for L=           1  read in
    real space projection operators read in
    PAW grid and wavefunctions read in
 
   number of l-projection  operators is LMAX  =           3
   number of lm-projection operators is LMMAX =           5
 
 POTCAR:    PAW_PBE O 08Apr2002                   
  local pseudopotential read in
  partial core-charges read in
  partial kinetic energy density read in
  kinetic energy density of atom read in
  atomic valenz-charges read in
  non local Contribution for L=           0  read in
    real space projection operators read in
  non local Contribution for L=           0  read in
    real space projection operators read in
  non local Contribution for L=           1  read in
    real space projection operators read in
  non local Contribution for L=           1  read in
    real space projection operators read in
    PAW grid and wavefunctions read in
 
   number of l-projection  operators is LMAX  =           4
   number of lm-projection operators is LMMAX =           8
 
 POTCAR:    PAW_PBE Cl 06Sep2000                  
  local pseudopotential read in
  partial core-charges read in
  partial kinetic energy density read in
  atomic valenz-charges read in
  non local Contribution for L=           0  read in
    real space projection operators read in
  non local Contribution for L=           0  read in
    real space projection operators read in
  non local Contribution for L=           1  read in
    real space projection operators read in
  non local Contribution for L=           1  read in
    real space projection operators read in
    PAW grid and wavefunctions read in
 
   number of l-projection  operators is LMAX  =           4
   number of lm-projection operators is LMMAX =           8
 
 Optimization of the real space projectors (new method)

 maximal supplied QI-value         = 17.01
 optimisation between [QCUT,QGAM] = [ 10.20, 20.41] = [ 29.16,116.64] Ry 
 Optimized for a Real-space Cutoff    1.19 Angstroem

   l    n(q)    QCUT    max X(q) W(low)/X(q) W(high)/X(q)  e(spline) 
   0      7    10.205    45.123    0.22E-03    0.82E-03    0.11E-06
   0      7    10.205    12.364    0.17E-03    0.61E-03    0.75E-07
   1      7    10.205     8.302    0.37E-03    0.15E-03    0.27E-07
 Optimization of the real space projectors (new method)

 maximal supplied QI-value         = 24.76
 optimisation between [QCUT,QGAM] = [ 10.15, 20.30] = [ 28.85,115.39] Ry 
 Optimized for a Real-space Cutoff    1.38 Angstroem

   l    n(q)    QCUT    max X(q) W(low)/X(q) W(high)/X(q)  e(spline) 
   0      8    10.150    20.381    0.22E-03    0.32E-03    0.29E-06
   0      8    10.150    15.268    0.23E-03    0.35E-03    0.30E-06
   1      8    10.150     5.964    0.46E-03    0.53E-03    0.21E-06
   1      8    10.150     5.382    0.38E-03    0.45E-03    0.19E-06
 Optimization of the real space projectors (new method)

 maximal supplied QI-value         = 19.84
 optimisation between [QCUT,QGAM] = [ 10.12, 20.44] = [ 28.68,116.96] Ry 
 Optimized for a Real-space Cutoff    1.23 Angstroem

   l    n(q)    QCUT    max X(q) W(low)/X(q) W(high)/X(q)  e(spline) 
   0      7    10.119   168.010    0.54E-04    0.25E-03    0.48E-07
   0      7    10.119   164.674    0.53E-04    0.25E-03    0.47E-07
   1      7    10.119    69.222    0.45E-03    0.63E-03    0.13E-06
   1      7    10.119    56.786    0.45E-03    0.62E-03    0.13E-06
  PAW_PBE Na 08Apr2002                  :
 energy of atom  1       EATOM=   -5.1581
 kinetic energy error for atom=    0.0001 (will be added to EATOM!!)
  PAW_PBE O 08Apr2002                   :
 energy of atom  2       EATOM= -432.3788
 kinetic energy error for atom=    0.1156 (will be added to EATOM!!)
  PAW_PBE Cl 06Sep2000                  :
 energy of atom  3       EATOM= -409.7259
 kinetic energy error for atom=    0.0089 (will be added to EATOM!!)
 
 
 POSCAR: Na  O Cl
  positions in cartesian coordinates
  No initial velocities read in
 exchange correlation table for  LEXCH =        8
   RHO(1)=    0.500       N(1)  =     2000
   RHO(2)=  100.500       N(2)  =     4000
 


--------------------------------------------------------------------------------------------------------


 ion  position               nearest neighbor table
   1  0.000  0.500  0.347-  13 2.23  14 2.23   5 3.15   6 3.15  18 3.15   7 3.15   8 3.15  17 3.15
                            17 3.15   6 3.15   5 3.15
   2  0.000  0.500  0.469-  14 2.23  15 2.23   7 3.15   8 3.15  19 3.15   6 3.15   5 3.15  18 3.15
                            18 3.15   9 3.15  10 3.15  17 3.15   8 3.15   7 3.15
   3  0.000  0.500  0.592-  15 2.23  16 2.23   9 3.15  10 3.15  20 3.15  11 3.15  12 3.15  19 3.15
                            19 3.15   7 3.15   8 3.15  18 3.15  10 3.15   9 3.15
   4  0.000  0.500  0.714-  16 2.23  12 3.15  11 3.15  10 3.15   9 3.15  20 3.15  20 3.15  19 3.15
                            12 3.15  11 3.15
   5  0.500  0.500  0.347-  13 2.23  14 2.23  18 3.15   1 3.15   6 3.15   2 3.15  17 3.15   8 3.15
                            17 3.15   6 3.15   1 3.15
   6  0.500  0.000  0.347-  13 2.23  14 2.23  18 3.15   1 3.15   5 3.15   2 3.15  17 3.15   7 3.15
                            17 3.15   1 3.15   5 3.15
   7  0.500  0.500  0.469-  14 2.23  15 2.23  19 3.15   2 3.15   8 3.15   1 3.15  18 3.15   6 3.15
                            10 3.15  18 3.15   3 3.15  17 3.15   8 3.15   2 3.15
   8  0.500  0.000  0.469-  14 2.23  15 2.23  19 3.15   2 3.15   7 3.15   1 3.15  18 3.15   5 3.15
                             9 3.15  18 3.15   3 3.15  17 3.15   2 3.15   7 3.15
   9  0.500  0.500  0.592-  15 2.23  16 2.23  20 3.15   3 3.15  10 3.15  19 3.15   4 3.15   8 3.15
                            12 3.15   2 3.15  19 3.15  10 3.15   3 3.15  18 3.15
  10  0.500  0.000  0.592-  15 2.23  16 2.23  20 3.15   3 3.15   9 3.15  19 3.15   4 3.15   7 3.15
                            11 3.15   2 3.15  19 3.15   3 3.15   9 3.15  18 3.15
  11  0.500  0.500  0.714-  16 2.23  12 3.15   4 3.15   3 3.15  20 3.15  10 3.15  20 3.15  12 3.15
                             4 3.15  19 3.15
  12  0.500  0.000  0.714-  16 2.23  11 3.15   4 3.15   3 3.15  20 3.15   9 3.15  20 3.15   4 3.15
                            11 3.15  19 3.15
  13  0.000  0.500  0.286-   5 2.23   6 2.23   1 2.23
  14  0.000  0.500  0.408-   7 2.23   8 2.23   2 2.23   1 2.23   6 2.23   5 2.23
  15  0.000  0.500  0.531-   9 2.23  10 2.23   3 2.23   8 2.23   7 2.23   2 2.23
  16  0.000  0.500  0.653-  11 2.23  12 2.23   4 2.23   3 2.23  10 2.23   9 2.23
  17  0.000  0.000  0.347-   6 3.15   1 3.15   5 3.15   5 3.15   1 3.15   6 3.15   8 3.15   7 3.15
                             2 3.15
  18  0.000  0.000  0.469-   5 3.15   6 3.15   1 3.15   8 3.15   2 3.15   7 3.15   7 3.15   2 3.15
                             8 3.15   3 3.15  10 3.15   9 3.15
  19  0.000  0.000  0.592-   7 3.15   8 3.15   2 3.15  10 3.15   9 3.15   3 3.15   3 3.15   9 3.15
                            10 3.15   4 3.15  12 3.15  11 3.15
  20  0.000  0.000  0.714-   9 3.15  10 3.15   3 3.15  12 3.15   4 3.15  11 3.15  11 3.15   4 3.15
                            12 3.15
 
  LATTYP: Found a base centered monoclinic cell.
 ALAT       =    10.9183027807
 B/A-ratio  =     0.5773502692
 C/A-ratio  =     1.9441547857
 COS(beta)  =    -0.1435127208
  
  Lattice vectors:
  
 A1 = (  -6.0888921902,  -1.6315137452,   0.0000000000)
 A2 = (  -1.6315137452,  -6.0888921902,   0.0000000000)
 A3 = (   2.1540777396,   2.1540777396,  21.0071400663)


Analysis of symmetry for initial positions (statically):
=====================================================================
 Subroutine PRICEL returns:
 Original cell was already a primitive cell.
 

 Routine SETGRP: Setting up the symmetry group for a 
 base centered monoclinic supercell.


 Subroutine GETGRP returns: Found  2 space group operations
 (whereof  2 operations were pure point group operations)
 out of a pool of  4 trial point group operations.


The static configuration has the point symmetry C_1h.


Analysis of symmetry for dynamics (positions and initial velocities):
=====================================================================
 Subroutine PRICEL returns:
 Original cell was already a primitive cell.
 

 Routine SETGRP: Setting up the symmetry group for a 
 base centered monoclinic supercell.


 Subroutine GETGRP returns: Found  2 space group operations
 (whereof  2 operations were pure point group operations)
 out of a pool of  4 trial point group operations.


The dynamic configuration has the point symmetry C_1h.


 Subroutine INISYM returns: Found  2 space group operations
 (whereof  2 operations are pure point group operations),
 and found     1 'primitive' translations


----------------------------------------------------------------------------------------

                                     Primitive cell                                     

  volume of cell :     722.9139

  direct lattice vectors                    reciprocal lattice vectors
     6.088892190  1.631513745  0.000000000     0.129526868  0.129526868  0.259053736
    -4.457378445  4.457378445  0.000000000    -0.047410124  0.176936992  0.129526868
   -21.007140066-21.007140066 21.007140066     0.000000000  0.000000000  0.047602862

  length of vectors
     6.303685050  6.303685050 36.385433917     0.317274734  0.224347116  0.047602862

  position of ions in fractional coordinates (direct lattice)
     0.000000349  0.500000174  0.346869403
     0.000000349  0.500000174  0.469373877
     0.000000349  0.500000174  0.591878351
     0.000000349  0.500000174  0.714382825
     0.500000274  0.500000174  0.346869403
     0.500000274  0.000000100  0.346869403
     0.500000274  0.500000174  0.469373877
     0.500000274  0.000000100  0.469373877
     0.500000274  0.500000174  0.591878351
     0.500000274  0.000000100  0.591878351
     0.500000274  0.500000174  0.714382825
     0.500000274  0.000000100  0.714382825
     0.000000349  0.500000174  0.285617175
     0.000000349  0.500000174  0.408121649
     0.000000349  0.500000174  0.530626123
     0.000000349  0.500000174  0.653130597
     0.000000200  0.000000100  0.346869385
     0.000000200  0.000000100  0.469373859
     0.000000200  0.000000100  0.591878333
     0.000000200  0.000000100  0.714382807

  ion indices of the primitive-cell ions
   primitive index   ion index
                 1           1
                 2           2
                 3           3
                 4           4
                 5           5
                 6           6
                 7           7
                 8           8
                 9           9
                10          10
                11          11
                12          12
                13          13
                14          14
                15          15
                16          16
                17          17
                18          18
                19          19
                20          20

----------------------------------------------------------------------------------------

 
 -----------------------------------------------------------------------------
|                                                                             |
|           W    W    AA    RRRRR   N    N  II  N    N   GGGG   !!!           |
|           W    W   A  A   R    R  NN   N  II  NN   N  G    G  !!!           |
|           W    W  A    A  R    R  N N  N  II  N N  N  G       !!!           |
|           W WW W  AAAAAA  RRRRR   N  N N  II  N  N N  G  GGG   !            |
|           WW  WW  A    A  R   R   N   NN  II  N   NN  G    G                |
|           W    W  A    A  R    R  N    N  II  N    N   GGGG   !!!           |
|                                                                             |
|     The requested file  could not be found or opened for reading            |
|     k-point information. Automatic k-point generation is used as a          |
|     fallback, which may lead to unwanted results.                           |
|                                                                             |
 -----------------------------------------------------------------------------

 

Automatic generation of k-mesh.
 Grid dimensions derived from KSPACING:
 generate k-points for:    4    3    1

 Generating k-lattice:

  Cartesian coordinates                     Fractional coordinates (reciprocal lattice)
     0.032381717  0.032381717  0.064763434     0.250000000  0.000000000  0.000000000
    -0.015803375  0.058978997  0.043175623     0.000000000  0.333333333 -0.000000000
     0.000000000  0.000000000  0.047602862     0.000000000  0.000000000  1.000000000

  Length of vectors
     0.079318684  0.074782372  0.047602862

  Shift w.r.t. Gamma in fractional coordinates (k-lattice)
     0.000000000  0.000000000  0.000000000

 -----------------------------------------------------------------------------
|                                                                             |
|           W    W    AA    RRRRR   N    N  II  N    N   GGGG   !!!           |
|           W    W   A  A   R    R  NN   N  II  NN   N  G    G  !!!           |
|           W    W  A    A  R    R  N N  N  II  N N  N  G       !!!           |
|           W WW W  AAAAAA  RRRRR   N  N N  II  N  N N  G  GGG   !            |
|           WW  WW  A    A  R   R   N   NN  II  N   NN  G    G                |
|           W    W  A    A  R    R  N    N  II  N    N   GGGG   !!!           |
|                                                                             |
|     Your reciprocal lattice and k-lattice belong to different lattice       |
|     classes:                                                                |
|                                                                             |
|        The reciprocal lattice is base-centered monoclinic,                  |
|        whereas your k-lattice is triclinic.                                 |
|                                                                             |
|     Results are often still useful ...                                      |
|                                                                             |
 -----------------------------------------------------------------------------

 WARNING: IBZKPT: internal override: KBLOWUP is changed to .FALSE.
      ... skipping the blow-up phase ...

 
 Subroutine IBZKPT returns following result:
 ===========================================
 
 Found      7 irreducible k-points:
 
 Following reciprocal coordinates:
            Coordinates               Weight
  0.000000  0.000000  0.000000      1.000000
  0.250000  0.000000  0.000000      2.000000
  0.500000  0.000000  0.000000      1.000000
 -0.000000  0.333333 -0.000000      2.000000
  0.250000  0.333333  0.000000      2.000000
  0.500000  0.333333  0.000000      2.000000
 -0.250000  0.333333  0.000000      2.000000
 
 Following cartesian coordinates:
            Coordinates               Weight
  0.000000  0.000000  0.000000      1.000000
  0.032382  0.032382  0.064763      2.000000
  0.064763  0.064763  0.129527      1.000000
 -0.015803  0.058979  0.043176      2.000000
  0.016578  0.091361  0.107939      2.000000
  0.048960  0.123742  0.172702      2.000000
 -0.048185  0.026597 -0.021588      2.000000
 


--------------------------------------------------------------------------------------------------------




 Dimension of arrays:
   k-points           NKPTS =      7   k-points in BZ     NKDIM =      7   number of bands    NBANDS=     48
   number of dos      NEDOS =    301   number of ions     NIONS =     20
   non local maximal  LDIM  =      4   non local SUM 2l+1 LMDIM =      8
   total plane-waves  NPLWV = 184320
   max r-space proj   IRMAX =   2860   max aug-charges    IRDMAX=  12611
   dimension x,y,z NGX =    32 NGY =   32 NGZ =  180
   dimension x,y,z NGXF=    64 NGYF=   64 NGZF=  360
   support grid    NGXF=    64 NGYF=   64 NGZF=  360
   ions per type =              12   4   4
   NGX,Y,Z   is equivalent  to a cutoff of   8.44,  8.44,  8.22 a.u.
   NGXF,Y,Z  is equivalent  to a cutoff of  16.88, 16.88, 16.45 a.u.

 SYSTEM =  unknown system                          
 POSCAR =  Na  O Cl                                

 Startparameter for this run:
   NWRITE =      1    write-flag & timer
   PREC   = normal    normal or accurate (medium, high low for compatibility)
   ISTART =      0    job   : 0-new  1-cont  2-samecut
   ICHARG =      2    charge: 1-file 2-atom 10-const
   ISPIN  =      1    spin polarized calculation?
   LNONCOLLINEAR =      F non collinear calculations
   LSORBIT =      F    spin-orbit coupling
   INIWAV =      1    electr: 0-lowe 1-rand  2-diag
   LASPH  =      T    aspherical Exc in radial PAW
 Electronic Relaxation 1
   ENCUT  =  400.0 eV  29.40 Ry    5.42 a.u.  10.28 10.28 59.34*2*pi/ulx,y,z
   ENINI  =  400.0     initial cutoff
   ENAUG  =  605.4 eV  augmentation charge cutoff
   NELM   =    150;   NELMIN=  2; NELMDL= -5     # of ELM steps 
   EDIFF  = 0.1E-07   stopping-criterion for ELM
   LREAL  =      T    real-space projection
   NLSPLINE    = F    spline interpolate recip. space projectors
   LCOMPAT=      F    compatible to vasp.4.4
   GGA_COMPAT  = T    GGA compatible to vasp.4.4-vasp.4.6
   LMAXPAW     = -100 max onsite density
   LMAXMIX     =    6 max onsite mixed and CHGCAR
   VOSKOWN=      0    Vosko Wilk Nusair interpolation
   ROPT   =   -0.00050  -0.00050  -0.00050
 Ionic relaxation
   EDIFFG = -.1E-01   stopping-criterion for IOM
   NSW    =      0    number of steps for IOM
   NBLOCK =      1;   KBLOCK =      1    inner block; outer block 
   IBRION =     -1    ionic relax: 0-MD 1-quasi-New 2-CG
   NFREE  =      0    steps in history (QN), initial steepest desc. (CG)
   ISIF   =      3    stress and relaxation
   IWAVPR =     10    prediction:  0-non 1-charg 2-wave 3-comb
   ISYM   =      2    0-nonsym 1-usesym 2-fastsym
   LCORR  =      T    Harris-Foulkes like correction to forces

   POTIM  = 0.5000    time-step for ionic-motion
   TEIN   =    0.0    initial temperature
   TEBEG  =    0.0;   TEEND  =   0.0 temperature during run
   SMASS  =  -3.00    Nose mass-parameter (am)
   estimated Nose-frequenzy (Omega)   =  0.10E-29 period in steps = 0.13E+47 mass=  -0.908E-27a.u.
   SCALEE = 1.0000    scale energy and forces
   NPACO  =    256;   APACO  = 16.0  distance and # of slots for P.C.
   PSTRESS=    0.0 pullay stress

  Mass of Ions in am
   POMASS =  22.99 16.00 35.45
  Ionic Valenz
   ZVAL   =   1.00  6.00  7.00
  Atomic Wigner-Seitz radii
   RWIGS  =  -1.00 -1.00 -1.00
  virtual crystal weights 
   VCA    =   1.00  1.00  1.00
   NELECT =      64.0000    total number of electrons
   NUPDOWN=      -1.0000    fix difference up-down

 DOS related values:
   EMIN   =  10.00;   EMAX   =-10.00  energy-range for DOS
   EFERMI =   0.00
   ISMEAR =     0;   SIGMA  =   0.10  broadening in eV -4-tet -1-fermi 0-gaus

 Electronic relaxation 2 (details)
   IALGO  =     68    algorithm
   LDIAG  =      T    sub-space diagonalisation (order eigenvalues)
   LSUBROT=      F    optimize rotation matrix (better conditioning)
   TURBO    =      0    0=normal 1=particle mesh
   IRESTART =      0    0=no restart 2=restart with 2 vectors
   NREBOOT  =      0    no. of reboots
   NMIN     =      0    reboot dimension
   EREF     =   0.00    reference energy to select bands
   IMIX   =      4    mixing-type and parameters
     AMIX     =   0.40;   BMIX     =  1.00
     AMIX_MAG =   1.60;   BMIX_MAG =  1.00
     AMIN     =   0.01
     WC   =   100.;   INIMIX=   1;  MIXPRE=   1;  MAXMIX= -45

 Intra band minimization:
   WEIMIN = 0.0000     energy-eigenvalue tresh-hold
   EBREAK =  0.52E-10  absolut break condition
   DEPER  =   0.30     relativ break condition  

   TIME   =   0.40     timestep for ELM

  volume/ion in A,a.u.               =      36.15       243.92
  Fermi-wavevector in a.u.,A,eV,Ry     =   0.729636  1.378811  7.243306  0.532368
  Thomas-Fermi vector in A             =   1.821406
 
 Write flags
   LWAVE        =      F    write WAVECAR
   LDOWNSAMPLE  =      F    k-point downsampling of WAVECAR
   LCHARG       =      F    write CHGCAR
   LVTOT        =      F    write LOCPOT, total local potential
   LVHAR        =      F    write LOCPOT, Hartree potential only
   LELF         =      F    write electronic localiz. function (ELF)
   LORBIT       =      0    0 simple, 1 ext, 2 COOP (PROOUT), +10 PAW based schemes


 Dipole corrections
   LMONO  =      F    monopole corrections only (constant potential shift)
   LDIPOL =      T    correct potential (dipole corrections)
   IDIPOL =      3    1-x, 2-y, 3-z, 4-all directions 
   EPSILON=  1.0000000 bulk dielectric constant

 Exchange correlation treatment:
   GGA     =    PE    GGA type
   LEXCH   =     8    internal setting for exchange type
   VOSKOWN=      0    Vosko Wilk Nusair interpolation
   LHFCALC =     F    Hartree Fock is set to
   LHFONE  =     F    Hartree Fock one center treatment
   AEXX    =    0.0000 exact exchange contribution

 Linear response parameters
   LEPSILON=     F    determine dielectric tensor
   LRPA    =     F    only Hartree local field effects (RPA)
   LNABLA  =     F    use nabla operator in PAW spheres
   LVEL    =     F    velocity operator in full k-point grid
   LINTERFAST=   F  fast interpolation
   KINTER  =     0    interpolate to denser k-point grid
   CSHIFT  =0.1000    complex shift for real part using Kramers Kronig
   OMEGAMAX=  -1.0    maximum frequency
   DEG_THRESHOLD= 0.2000000E-02 threshold for treating states as degnerate
   RTIME   =   -0.100 relaxation time in fs
  (WPLASMAI=    0.000 imaginary part of plasma frequency in eV, 0.658/RTIME)
   DFIELD  = 0.0000000 0.0000000 0.0000000 field for delta impulse in time
 
 Orbital magnetization related:
   ORBITALMAG=     F  switch on orbital magnetization
   LCHIMAG   =     F  perturbation theory with respect to B field
   DQ        =  0.001000  dq finite difference perturbation B field
   LLRAUG    =     F  two centre corrections for induced B field



--------------------------------------------------------------------------------------------------------


 Static calculation
 charge density and potential will be updated during run
 non-spin polarized calculation
 RMM-DIIS sequential band-by-band and
  variant of blocked Davidson during initial phase
 perform sub-space diagonalisation
    before iterative eigenvector-optimisation
 modified Broyden-mixing scheme, WC =      100.0
 initial mixing is a Kerker type mixing with AMIX =  0.4000 and BMIX =      1.0000
 Hartree-type preconditioning will be used
 using additional bands           16
 real space projection scheme for non local part
 use partial core corrections
 calculate Harris-corrections to forces 
   (improved forces if not selfconsistent)
 use gradient corrections 
 use of overlap-Matrix (Vanderbilt PP)
 Gauss-broadening in eV      SIGMA  =   0.10


--------------------------------------------------------------------------------------------------------


  energy-cutoff  :      400.00
  volume of cell :      722.91
      direct lattice vectors                 reciprocal lattice vectors
     6.088892190  1.631513745  0.000000000     0.129526868  0.129526868  0.259053736
    -4.457378445  4.457378445  0.000000000    -0.047410124  0.176936992  0.129526868
   -21.007140066-21.007140066 21.007140066     0.000000000  0.000000000  0.047602862

  length of vectors
     6.303685050  6.303685050 36.385433917     0.317274734  0.224347116  0.047602862


 
 k-points in units of 2pi/SCALE and weight: read from INCAR                         
   0.00000000  0.00000000  0.00000000       0.083
   0.03238172  0.03238172  0.06476343       0.167
   0.06476343  0.06476343  0.12952687       0.083
  -0.01580337  0.05897900  0.04317562       0.167
   0.01657834  0.09136071  0.10793906       0.167
   0.04896006  0.12374243  0.17270249       0.167
  -0.04818509  0.02659728 -0.02158781       0.167
 
 k-points in reciprocal lattice and weights: read from INCAR                         
   0.00000000  0.00000000  0.00000000       0.083
   0.25000000  0.00000000  0.00000000       0.167
   0.50000000  0.00000000  0.00000000       0.083
  -0.00000000  0.33333333 -0.00000000       0.167
   0.25000000  0.33333333  0.00000000       0.167
   0.50000000  0.33333333  0.00000000       0.167
  -0.25000000  0.33333333  0.00000000       0.167
 
 position of ions in fractional coordinates (direct lattice) 
   0.00000035  0.50000017  0.34686940
   0.00000035  0.50000017  0.46937388
   0.00000035  0.50000017  0.59187835
   0.00000035  0.50000017  0.71438283
   0.50000027  0.50000017  0.34686940
   0.50000027  0.00000010  0.34686940
   0.50000027  0.50000017  0.46937388
   0.50000027  0.00000010  0.46937388
   0.50000027  0.50000017  0.59187835
   0.50000027  0.00000010  0.59187835
   0.50000027  0.50000017  0.71438283
   0.50000027  0.00000010  0.71438283
   0.00000035  0.50000017  0.28561717
   0.00000035  0.50000017  0.40812165
   0.00000035  0.50000017  0.53062612
   0.00000035  0.50000017  0.65313060
   0.00000020  0.00000010  0.34686938
   0.00000020  0.00000010  0.46937386
   0.00000020  0.00000010  0.59187833
   0.00000020  0.00000010  0.71438281
 
 position of ions in cartesian coordinates  (Angst):
  -9.51542201 -5.05804356  7.28673413
 -12.08889065 -7.63151221  9.86020278
 -14.66235930-10.20498085 12.43367142
 -17.23582794-12.77844950 15.00714007
  -6.47097636 -4.24228681  7.28673413
  -4.24228681 -6.47097636  7.28673413
  -9.04444501 -6.81575546  9.86020278
  -6.81575546 -9.04444501  9.86020278
 -11.61791366 -9.38922410 12.43367142
  -9.38922410-11.61791366 12.43367142
 -14.19138230-11.96269275 15.00714007
 -11.96269275-14.19138230 15.00714007
  -8.22868788 -3.77130943  6.00000000
 -10.80215652 -6.34477808  8.57346865
 -13.37562517 -8.91824672 11.14693729
 -15.94909381-11.49171537 13.72040594
  -7.28673298 -7.28673298  7.28673375
  -9.86020162 -9.86020162  9.86020239
 -12.43367027-12.43367027 12.43367104
 -15.00713891-15.00713891 15.00713968
 


--------------------------------------------------------------------------------------------------------


 k-point   1 :   0.0000 0.0000 0.0000  plane waves:   13111
 k-point   2 :   0.2500 0.0000 0.0000  plane waves:   13125
 k-point   3 :   0.5000 0.0000 0.0000  plane waves:   13134
 k-point   4 :  -0.0000 0.3333-0.0000  plane waves:   13142
 k-point   5 :   0.2500 0.3333 0.0000  plane waves:   13116
 k-point   6 :   0.5000 0.3333 0.0000  plane waves:   13114
 k-point   7 :  -0.2500 0.3333 0.0000  plane waves:   13136

 maximum and minimum number of plane-waves per node :       842      804

 maximum number of plane-waves:     13142
 maximum index in each direction: 
   IXMAX=   10   IYMAX=   10   IZMAX=   59
   IXMIN=  -10   IYMIN=  -10   IZMIN=  -59


 real space projection operators:
  total allocation   :       1987.62 KBytes
  max/ min on nodes  :        140.55        113.41


 parallel 3D FFT for wavefunctions:
    minimum data exchange during FFTs selected (reduces bandwidth)
 parallel 3D FFT for charge:
    minimum data exchange during FFTs selected (reduces bandwidth)


 total amount of memory used by VASP MPI-rank0    34712. kBytes
=======================================================================

   base      :      30000. kBytes
   nonlr-proj:       1105. kBytes
   fftplans  :       1090. kBytes
   grid      :       1942. kBytes
   one-center:          6. kBytes
   wavefun   :        569. kBytes
 
     INWAV:  cpu time    0.0000: real time    0.0007
 Broyden mixing: mesh for mixing (old mesh)
   NGX = 21   NGY = 21   NGZ =119
  (NGX  = 64   NGY  = 64   NGZ  =360)
  gives a total of  52479 points

 initial charge density was supplied:
 charge density of overlapping atoms calculated
 number of electron      64.0000000 magnetization 
 keeping initial charge density in first step


--------------------------------------------------------------------------------------------------------


 Maximum index for non-local projection operator          146
 Maximum index for augmentation-charges          398 (set IRDMAX)


--------------------------------------------------------------------------------------------------------


 First call to EWALD:  gamma=   0.197
 Maximum number of real-space cells 7x 5x 1
 Maximum number of reciprocal cells 2x 2x10

    FEWALD:  cpu time    0.0014: real time    0.0014


--------------------------------------- Iteration      1(   1)  ---------------------------------------


    POTLOK:  cpu time    0.0172: real time    0.0198
    SETDIJ:  cpu time    0.0409: real time    0.0418
     EDDAV:  cpu time    0.3340: real time    0.3511
       DOS:  cpu time    0.0012: real time    0.0055
    --------------------------------------------
      LOOP:  cpu time    0.3932: real time    0.4182

 eigenvalue-minimisations  :   712
 total energy-change (2. order) : 0.5005575E+03  (-0.1866895E+04)
 number of electron      64.0000000 magnetization 
 augmentation part       64.0000000 magnetization 

 DIPCOR: dipole corrections for dipol
 direction  3 min pos     9,
 dipolmoment           0.001147      0.001147     -0.001147 electrons x Angstroem
 Tr[quadrupol]      -287.258689

 energy correction for charged system         0.000000 eV
 dipol+quadrupol energy correction           -0.000001 eV
 added-field ion interaction         -0.016865 eV  (added to PSCEN)


 Free energy of the ion-electron system (eV)
  ---------------------------------------------------
  alpha Z        PSCENC =        -0.58971364
  Ewald energy   TEWEN  =      2793.72358906
  -Hartree energ DENC   =     -5825.62795371
  -exchange      EXHF   =         0.00000000
  -V(xc)+E(xc)   XCENC  =      -249.54056636
  PAW double counting   =      3165.81388983    -2723.36158796
  entropy T*S    EENTRO =        -0.02187969
  eigenvalues    EBANDS =       -89.65547833
  atomic energy  EATOM  =      3429.81723989
  Solvation  Ediel_sol  =         0.00000000
  ---------------------------------------------------
  free energy    TOTEN  =       500.55753909 eV

  energy without entropy =      500.57941878  energy(sigma->0) =      500.56847894


--------------------------------------------------------------------------------------------------------




--------------------------------------- Iteration      1(   2)  ---------------------------------------


     EDDAV:  cpu time    0.3998: real time    0.4616
       DOS:  cpu time    0.0004: real time    0.0044
    --------------------------------------------
      LOOP:  cpu time    0.4002: real time    0.4660

 eigenvalue-minimisations  :   952
 total energy-change (2. order) :-0.4651205E+03  (-0.4409389E+03)
 number of electron      64.0000000 magnetization 
 augmentation part       64.0000000 magnetization 

 DIPCOR: dipole corrections for dipol
 direction  3 min pos     9,
 dipolmoment           0.001147      0.001147     -0.001147 electrons x Angstroem
 Tr[quadrupol]      -287.258689

 energy correction for charged system         0.000000 eV
 dipol+quadrupol energy correction           -0.000001 eV
 added-field ion interaction         -0.016865 eV  (added to PSCEN)


 Free energy of the ion-electron system (eV)
  ---------------------------------------------------
  alpha Z        PSCENC =        -0.58971364
  Ewald energy   TEWEN  =      2793.72358906
  -Hartree energ DENC   =     -5825.62795371
  -exchange      EXHF   =         0.00000000
  -V(xc)+E(xc)   XCENC  =      -249.54056636
  PAW double counting   =      3165.81388983    -2723.36158796
  entropy T*S    EENTRO =        -0.00000000
  eigenvalues    EBANDS =      -554.79789742
  atomic energy  EATOM  =      3429.81723989
  Solvation  Ediel_sol  =         0.00000000
  ---------------------------------------------------
  free energy    TOTEN  =        35.43699969 eV

  energy without entropy =       35.43699969  energy(sigma->0) =       35.43699969


--------------------------------------------------------------------------------------------------------




--------------------------------------- Iteration      1(   3)  ---------------------------------------


     EDDAV:  cpu time    0.3143: real time    0.3261
       DOS:  cpu time    0.0003: real time    0.0003
    --------------------------------------------
      LOOP:  cpu time    0.3146: real time    0.3264

 eigenvalue-minimisations  :   888
 total energy-change (2. order) :-0.1213242E+03  (-0.1200287E+03)
 number of electron      64.0000000 magnetization 
 augmentation part       64.0000000 magnetization 

 DIPCOR: dipole corrections for dipol
 direction  3 min pos     9,
 dipolmoment           0.001147      0.001147     -0.001147 electrons x Angstroem
 Tr[quadrupol]      -287.258689

 energy correction for charged system         0.000000 eV
 dipol+quadrupol energy correction           -0.000001 eV
 added-field ion interaction         -0.016865 eV  (added to PSCEN)


 Free energy of the ion-electron system (eV)
  ---------------------------------------------------
  alpha Z        PSCENC =        -0.58971364
  Ewald energy   TEWEN  =      2793.72358906
  -Hartree energ DENC   =     -5825.62795371
  -exchange      EXHF   =         0.00000000
  -V(xc)+E(xc)   XCENC  =      -249.54056636
  PAW double counting   =      3165.81388983    -2723.36158796
  entropy T*S    EENTRO =        -0.00000000
  eigenvalues    EBANDS =      -676.12211214
  atomic energy  EATOM  =      3429.81723989
  Solvation  Ediel_sol  =         0.00000000
  ---------------------------------------------------
  free energy    TOTEN  =       -85.88721503 eV

  energy without entropy =      -85.88721503  energy(sigma->0) =      -85.88721503


--------------------------------------------------------------------------------------------------------




--------------------------------------- Iteration      1(   4)  ---------------------------------------


     EDDAV:  cpu time    0.2960: real time    0.2984
       DOS:  cpu time    0.0003: real time    0.0003
    --------------------------------------------
      LOOP:  cpu time    0.2963: real time    0.2987

 eigenvalue-minimisations  :   832
 total energy-change (2. order) :-0.4553251E+01  (-0.4537233E+01)
 number of electron      64.0000000 magnetization 
 augmentation part       64.0000000 magnetization 

 DIPCOR: dipole corrections for dipol
 direction  3 min pos     9,
 dipolmoment           0.001147      0.001147     -0.001147 electrons x Angstroem
 Tr[quadrupol]      -287.258689

 energy correction for charged system         0.000000 eV
 dipol+quadrupol energy correction           -0.000001 eV
 added-field ion interaction         -0.016865 eV  (added to PSCEN)


 Free energy of the ion-electron system (eV)
  ---------------------------------------------------
  alpha Z        PSCENC =        -0.58971364
  Ewald energy   TEWEN  =      2793.72358906
  -Hartree energ DENC   =     -5825.62795371
  -exchange      EXHF   =         0.00000000
  -V(xc)+E(xc)   XCENC  =      -249.54056636
  PAW double counting   =      3165.81388983    -2723.36158796
  entropy T*S    EENTRO =        -0.00000000
  eigenvalues    EBANDS =      -680.67536350
  atomic energy  EATOM  =      3429.81723989
  Solvation  Ediel_sol  =         0.00000000
  ---------------------------------------------------
  free energy    TOTEN  =       -90.44046640 eV

  energy without entropy =      -90.44046640  energy(sigma->0) =      -90.44046640


--------------------------------------------------------------------------------------------------------




--------------------------------------- Iteration      1(   5)  ---------------------------------------


     EDDAV:  cpu time    0.3047: real time    0.3168
       DOS:  cpu time    0.0003: real time    0.0003
    CHARGE:  cpu time    0.0282: real time    0.0294
    MIXING:  cpu time    0.0040: real time    0.0047
    --------------------------------------------
      LOOP:  cpu time    0.3373: real time    0.3512

 eigenvalue-minimisations  :   856
 total energy-change (2. order) :-0.1316838E+00  (-0.1316052E+00)
 number of electron      64.0000027 magnetization 
 augmentation part       -0.2565139 magnetization 

 DIPCOR: dipole corrections for dipol
 direction  3 min pos     9,
 dipolmoment           0.001147      0.001147     -0.001147 electrons x Angstroem
 Tr[quadrupol]      -287.258689

 energy correction for charged system         0.000000 eV
 dipol+quadrupol energy correction           -0.000001 eV
 added-field ion interaction         -0.016865 eV  (added to PSCEN)


 Broyden mixing:
  rms(total) = 0.21453E+01    rms(broyden)= 0.21446E+01
  rms(prec ) = 0.24617E+01
  weight for this iteration     100.00

 Free energy of the ion-electron system (eV)
  ---------------------------------------------------
  alpha Z        PSCENC =        -0.58971364
  Ewald energy   TEWEN  =      2793.72358906
  -Hartree energ DENC   =     -5825.62795371
  -exchange      EXHF   =         0.00000000
  -V(xc)+E(xc)   XCENC  =      -249.54056636
  PAW double counting   =      3165.81388983    -2723.36158796
  entropy T*S    EENTRO =        -0.00000000
  eigenvalues    EBANDS =      -680.80704731
  atomic energy  EATOM  =      3429.81723989
  Solvation  Ediel_sol  =         0.00000000
  ---------------------------------------------------
  free energy    TOTEN  =       -90.57215020 eV

  energy without entropy =      -90.57215020  energy(sigma->0) =      -90.57215020


--------------------------------------------------------------------------------------------------------




--------------------------------------- Iteration      1(   6)  ---------------------------------------


    POTLOK:  cpu time    0.0156: real time    0.0157
    SETDIJ:  cpu time    0.0451: real time    0.0451
    EDDIAG:  cpu time    0.0797: real time    0.0815
  RMM-DIIS:  cpu time    0.0930: real time    0.0948
    ORTHCH:  cpu time    0.0099: real time    0.0129
       DOS:  cpu time    0.0005: real time    0.0005
    CHARGE:  cpu time    0.0241: real time    0.0241
    MIXING:  cpu time    0.0023: real time    0.0024
    --------------------------------------------
      LOOP:  cpu time    0.2703: real time    0.2771

 eigenvalue-minimisations  :   840
 total energy-change (2. order) : 0.2092223E+02  (-0.6225044E+01)
 number of electron      64.0000018 magnetization 
 augmentation part       -1.4382396 magnetization 

 DIPCOR: dipole corrections for dipol
 direction  3 min pos     9,
 dipolmoment           0.047871      0.047871     -0.047871 electrons x Angstroem
 Tr[quadrupol]      -287.670051

 energy correction for charged system         0.000000 eV
 dipol+quadrupol energy correction           -0.001434 eV
 added-field ion interaction         -0.703964 eV  (added to PSCEN)


 Broyden mixing:
  rms(total) = 0.14244E+01    rms(broyden)= 0.14233E+01
  rms(prec ) = 0.15324E+01
  weight for this iteration     100.00

 eigenvalues of (default mixing * dielectric matrix)
  average eigenvalue GAMMA=   0.6230
  0.6230

 Free energy of the ion-electron system (eV)
  ---------------------------------------------------
  alpha Z        PSCENC =        -1.27824558
  Ewald energy   TEWEN  =      2793.72358906
  -Hartree energ DENC   =     -5989.52701967
  -exchange      EXHF   =         0.00000000
  -V(xc)+E(xc)   XCENC  =      -238.99933184
  PAW double counting   =      3688.47198271    -3248.34500507
  entropy T*S    EENTRO =        -0.08933462
  eigenvalues    EBANDS =      -503.42379677
  atomic energy  EATOM  =      3429.81723989
  Solvation  Ediel_sol  =         0.00000000
  ---------------------------------------------------
  free energy    TOTEN  =       -69.64992189 eV

  energy without entropy =      -69.56058728  energy(sigma->0) =      -69.60525458


--------------------------------------------------------------------------------------------------------




--------------------------------------- Iteration      1(   7)  ---------------------------------------


    POTLOK:  cpu time    0.0142: real time    0.0142
    SETDIJ:  cpu time    0.0422: real time    0.0422
    EDDIAG:  cpu time    0.0876: real time    0.1003
  RMM-DIIS:  cpu time    0.1253: real time    0.1460
    ORTHCH:  cpu time    0.0084: real time    0.0132
       DOS:  cpu time    0.0009: real time    0.0009
    CHARGE:  cpu time    0.0276: real time    0.0276
    MIXING:  cpu time    0.0008: real time    0.0008
    --------------------------------------------
      LOOP:  cpu time    0.3070: real time    0.3453

 eigenvalue-minimisations  :   882
 total energy-change (2. order) :-0.6077522E+00  (-0.8252445E+00)
 number of electron      64.0000020 magnetization 
 augmentation part       -1.0890702 magnetization 

 DIPCOR: dipole corrections for dipol
 direction  3 min pos     9,
 dipolmoment           0.064771      0.064771     -0.064771 electrons x Angstroem
 Tr[quadrupol]      -288.052927

 energy correction for charged system         0.000000 eV
 dipol+quadrupol energy correction           -0.002625 eV
 added-field ion interaction         -0.952494 eV  (added to PSCEN)


 Broyden mixing:
  rms(total) = 0.70457E+00    rms(broyden)= 0.70423E+00
  rms(prec ) = 0.89716E+00
  weight for this iteration     100.00

 eigenvalues of (default mixing * dielectric matrix)
  average eigenvalue GAMMA=   0.6400
  0.6400  0.6400

 Free energy of the ion-electron system (eV)
  ---------------------------------------------------
  alpha Z        PSCENC =        -1.52796690
  Ewald energy   TEWEN  =      2793.72358906
  -Hartree energ DENC   =     -5982.00501088
  -exchange      EXHF   =         0.00000000
  -V(xc)+E(xc)   XCENC  =      -239.66651114
  PAW double counting   =      3824.74349226    -3384.20676900
  entropy T*S    EENTRO =        -0.00000000
  eigenvalues    EBANDS =      -511.13573740
  atomic energy  EATOM  =      3429.81723989
  Solvation  Ediel_sol  =         0.00000000
  ---------------------------------------------------
  free energy    TOTEN  =       -70.25767412 eV

  energy without entropy =      -70.25767412  energy(sigma->0) =      -70.25767412


--------------------------------------------------------------------------------------------------------




--------------------------------------- Iteration      1(   8)  ---------------------------------------


    POTLOK:  cpu time    0.0210: real time    0.0304
    SETDIJ:  cpu time    0.0456: real time    0.0456
    EDDIAG:  cpu time    0.0726: real time    0.0796
  RMM-DIIS:  cpu time    0.1287: real time    0.1905
    ORTHCH:  cpu time    0.1089: real time    0.1637
       DOS:  cpu time    0.0108: real time    0.0108
    CHARGE:  cpu time    0.0256: real time    0.0301
    MIXING:  cpu time    0.0006: real time    0.0006
    --------------------------------------------
      LOOP:  cpu time    0.4137: real time    0.5513

 eigenvalue-minimisations  :   963
 total energy-change (2. order) : 0.1760412E+01  (-0.2474511E+00)
 number of electron      64.0000020 magnetization 
 augmentation part       -1.1572006 magnetization 

 DIPCOR: dipole corrections for dipol
 direction  3 min pos     9,
 dipolmoment           0.104660      0.104660     -0.104660 electrons x Angstroem
 Tr[quadrupol]      -288.411593

 energy correction for charged system         0.000000 eV
 dipol+quadrupol energy correction           -0.006855 eV
 added-field ion interaction         -1.539074 eV  (added to PSCEN)


 Broyden mixing:
  rms(total) = 0.50462E+00    rms(broyden)= 0.50460E+00
  rms(prec ) = 0.64515E+00
  weight for this iteration     100.00

 eigenvalues of (default mixing * dielectric matrix)
  average eigenvalue GAMMA=   1.1199
  0.5360  1.4118  1.4118

 Free energy of the ion-electron system (eV)
  ---------------------------------------------------
  alpha Z        PSCENC =        -2.11877614
  Ewald energy   TEWEN  =      2793.72358906
  -Hartree energ DENC   =     -5995.97767145
  -exchange      EXHF   =         0.00000000
  -V(xc)+E(xc)   XCENC  =      -238.87501560
  PAW double counting   =      3921.89256263    -3481.30596757
  entropy T*S    EENTRO =        -0.02585364
  eigenvalues    EBANDS =      -495.62736940
  atomic energy  EATOM  =      3429.81723989
  Solvation  Ediel_sol  =         0.00000000
  ---------------------------------------------------
  free energy    TOTEN  =       -68.49726222 eV

  energy without entropy =      -68.47140858  energy(sigma->0) =      -68.48433540


--------------------------------------------------------------------------------------------------------




--------------------------------------- Iteration      1(   9)  ---------------------------------------


    POTLOK:  cpu time    0.0146: real time    0.0213
    SETDIJ:  cpu time    0.0403: real time    0.0404
    EDDIAG:  cpu time    0.0719: real time    0.0720
  RMM-DIIS:  cpu time    0.1014: real time    0.1015
    ORTHCH:  cpu time    0.0088: real time    0.0088
       DOS:  cpu time    0.0005: real time    0.0005
    CHARGE:  cpu time    0.0244: real time    0.0244
    MIXING:  cpu time    0.0007: real time    0.0007
    --------------------------------------------
      LOOP:  cpu time    0.2626: real time    0.2694

 eigenvalue-minimisations  :   922
 total energy-change (2. order) :-0.8579552E+01  (-0.3227911E+00)
 number of electron      64.0000016 magnetization 
 augmentation part       -1.9821808 magnetization 

 DIPCOR: dipole corrections for dipol
 direction  3 min pos     9,
 dipolmoment           0.272306      0.272306     -0.272306 electrons x Angstroem
 Tr[quadrupol]      -289.890477

 energy correction for charged system         0.000000 eV
 dipol+quadrupol energy correction           -0.046402 eV
 added-field ion interaction         -4.004382 eV  (added to PSCEN)


 Broyden mixing:
  rms(total) = 0.33480E+01    rms(broyden)= 0.33473E+01
  rms(prec ) = 0.43227E+01
  weight for this iteration     100.00

 eigenvalues of (default mixing * dielectric matrix)
  average eigenvalue GAMMA=   0.8426
  1.4042  1.4042  0.5183  0.0439

 Free energy of the ion-electron system (eV)
  ---------------------------------------------------
  alpha Z        PSCENC =        -4.62363173
  Ewald energy   TEWEN  =      2793.72358906
  -Hartree energ DENC   =     -6010.08400442
  -exchange      EXHF   =         0.00000000
  -V(xc)+E(xc)   XCENC  =      -238.34603398
  PAW double counting   =      4108.17256068    -3667.27699226
  entropy T*S    EENTRO =        -0.01103710
  eigenvalues    EBANDS =      -488.44850406
  atomic energy  EATOM  =      3429.81723989
  Solvation  Ediel_sol  =         0.00000000
  ---------------------------------------------------
  free energy    TOTEN  =       -77.07681391 eV

  energy without entropy =      -77.06577681  energy(sigma->0) =      -77.07129536


--------------------------------------------------------------------------------------------------------




--------------------------------------- Iteration      1(  10)  ---------------------------------------


    POTLOK:  cpu time    0.0139: real time    0.0139
    SETDIJ:  cpu time    0.0418: real time    0.0418
    EDDIAG:  cpu time    0.0719: real time    0.0730
  RMM-DIIS:  cpu time    0.0954: real time    0.0954
    ORTHCH:  cpu time    0.0087: real time    0.0087
       DOS:  cpu time    0.0006: real time    0.0006
    CHARGE:  cpu time    0.0238: real time    0.0238
    MIXING:  cpu time    0.0008: real time    0.0008
    --------------------------------------------
      LOOP:  cpu time    0.2569: real time    0.2580

 eigenvalue-minimisations  :   900
 total energy-change (2. order) : 0.7874174E+01  (-0.1219583E+00)
 number of electron      64.0000019 magnetization 
 augmentation part       -1.3977546 magnetization 

 DIPCOR: dipole corrections for dipol
 direction  3 min pos     9,
 dipolmoment           0.238065      0.238065     -0.238065 electrons x Angstroem
 Tr[quadrupol]      -289.813895

 energy correction for charged system         0.000000 eV
 dipol+quadrupol energy correction           -0.035466 eV
 added-field ion interaction         -3.500853 eV  (added to PSCEN)


 Broyden mixing:
  rms(total) = 0.10230E+01    rms(broyden)= 0.10227E+01
  rms(prec ) = 0.13082E+01
  weight for this iteration     100.00

 eigenvalues of (default mixing * dielectric matrix)
  average eigenvalue GAMMA=   0.7460
  1.3805  1.3805  0.5091  0.2301  0.2301

 Free energy of the ion-electron system (eV)
  ---------------------------------------------------
  alpha Z        PSCENC =        -4.10916654
  Ewald energy   TEWEN  =      2793.72358906
  -Hartree energ DENC   =     -6004.33448309
  -exchange      EXHF   =         0.00000000
  -V(xc)+E(xc)   XCENC  =      -238.60407712
  PAW double counting   =      4116.79727058    -3675.85346175
  entropy T*S    EENTRO =        -0.13544947
  eigenvalues    EBANDS =      -486.50410110
  atomic energy  EATOM  =      3429.81723989
  Solvation  Ediel_sol  =         0.00000000
  ---------------------------------------------------
  free energy    TOTEN  =       -69.20263953 eV

  energy without entropy =      -69.06719007  energy(sigma->0) =      -69.13491480


--------------------------------------------------------------------------------------------------------




--------------------------------------- Iteration      1(  11)  ---------------------------------------


    POTLOK:  cpu time    0.0138: real time    0.0138
    SETDIJ:  cpu time    0.0422: real time    0.0423
    EDDIAG:  cpu time    0.0712: real time    0.0724
  RMM-DIIS:  cpu time    0.0950: real time    0.0950
    ORTHCH:  cpu time    0.0087: real time    0.0087
       DOS:  cpu time    0.0005: real time    0.0005
    CHARGE:  cpu time    0.0238: real time    0.0238
    MIXING:  cpu time    0.0007: real time    0.0007
    --------------------------------------------
      LOOP:  cpu time    0.2559: real time    0.2571

 eigenvalue-minimisations  :   903
 total energy-change (2. order) : 0.8172007E+00  (-0.4052084E-01)
 number of electron      64.0000019 magnetization 
 augmentation part       -1.3641585 magnetization 

 DIPCOR: dipole corrections for dipol
 direction  3 min pos     9,
 dipolmoment           0.248873      0.248873     -0.248873 electrons x Angstroem
 Tr[quadrupol]      -290.014235

 energy correction for charged system         0.000000 eV
 dipol+quadrupol energy correction           -0.038759 eV
 added-field ion interaction         -3.659796 eV  (added to PSCEN)


 Broyden mixing:
  rms(total) = 0.78069E+00    rms(broyden)= 0.78021E+00
  rms(prec ) = 0.10416E+01
  weight for this iteration     100.00

 eigenvalues of (default mixing * dielectric matrix)
  average eigenvalue GAMMA=   0.6953
  1.3504  1.3504  0.5110  0.3882  0.3882  0.1837

 Free energy of the ion-electron system (eV)
  ---------------------------------------------------
  alpha Z        PSCENC =        -4.27140280
  Ewald energy   TEWEN  =      2793.72358906
  -Hartree energ DENC   =     -6004.78890488
  -exchange      EXHF   =         0.00000000
  -V(xc)+E(xc)   XCENC  =      -238.56904614
  PAW double counting   =      4117.44680020    -3676.50762858
  entropy T*S    EENTRO =        -0.14400576
  eigenvalues    EBANDS =      -485.09207982
  atomic energy  EATOM  =      3429.81723989
  Solvation  Ediel_sol  =         0.00000000
  ---------------------------------------------------
  free energy    TOTEN  =       -68.38543881 eV

  energy without entropy =      -68.24143305  energy(sigma->0) =      -68.31343593


--------------------------------------------------------------------------------------------------------




--------------------------------------- Iteration      1(  12)  ---------------------------------------


    POTLOK:  cpu time    0.0139: real time    0.0139
    SETDIJ:  cpu time    0.0420: real time    0.0420
    EDDIAG:  cpu time    0.0818: real time    0.0842
  RMM-DIIS:  cpu time    0.1002: real time    0.1002
    ORTHCH:  cpu time    0.0086: real time    0.0086
       DOS:  cpu time    0.0005: real time    0.0005
    CHARGE:  cpu time    0.0239: real time    0.0239
    MIXING:  cpu time    0.0008: real time    0.0008
    --------------------------------------------
      LOOP:  cpu time    0.2717: real time    0.2741

 eigenvalue-minimisations  :   932
 total energy-change (2. order) : 0.2957667E+00  (-0.8873128E-02)
 number of electron      64.0000019 magnetization 
 augmentation part       -1.3705294 magnetization 

 DIPCOR: dipole corrections for dipol
 direction  3 min pos     9,
 dipolmoment           0.258661      0.258661     -0.258661 electrons x Angstroem
 Tr[quadrupol]      -290.197791

 energy correction for charged system         0.000000 eV
 dipol+quadrupol energy correction           -0.041868 eV
 added-field ion interaction         -3.803727 eV  (added to PSCEN)


 Broyden mixing:
  rms(total) = 0.74071E+00    rms(broyden)= 0.74070E+00
  rms(prec ) = 0.99883E+00
  weight for this iteration     100.00

 eigenvalues of (default mixing * dielectric matrix)
  average eigenvalue GAMMA=   0.8698
  1.6669  1.6669  0.8403  0.8403  0.5414  0.2663  0.2663

 Free energy of the ion-electron system (eV)
  ---------------------------------------------------
  alpha Z        PSCENC =        -4.41844288
  Ewald energy   TEWEN  =      2793.72358906
  -Hartree energ DENC   =     -6004.88572495
  -exchange      EXHF   =         0.00000000
  -V(xc)+E(xc)   XCENC  =      -238.56498763
  PAW double counting   =      4111.03199507    -3670.10153817
  entropy T*S    EENTRO =        -0.14475324
  eigenvalues    EBANDS =      -484.54704930
  atomic energy  EATOM  =      3429.81723989
  Solvation  Ediel_sol  =         0.00000000
  ---------------------------------------------------
  free energy    TOTEN  =       -68.08967216 eV

  energy without entropy =      -67.94491892  energy(sigma->0) =      -68.01729554


--------------------------------------------------------------------------------------------------------




--------------------------------------- Iteration      1(  13)  ---------------------------------------


    POTLOK:  cpu time    0.0143: real time    0.0143
    SETDIJ:  cpu time    0.0421: real time    0.0421
    EDDIAG:  cpu time    0.0713: real time    0.0719
  RMM-DIIS:  cpu time    0.1018: real time    0.1018
    ORTHCH:  cpu time    0.0087: real time    0.0087
       DOS:  cpu time    0.0005: real time    0.0005
    CHARGE:  cpu time    0.0237: real time    0.0237
    MIXING:  cpu time    0.0009: real time    0.0009
    --------------------------------------------
      LOOP:  cpu time    0.2633: real time    0.2640

 eigenvalue-minimisations  :   916
 total energy-change (2. order) :-0.5080392E+00  (-0.1751349E-01)
 number of electron      64.0000019 magnetization 
 augmentation part       -1.3659572 magnetization 

 DIPCOR: dipole corrections for dipol
 direction  3 min pos     9,
 dipolmoment           0.327035      0.327035     -0.327035 electrons x Angstroem
 Tr[quadrupol]      -291.291292

 energy correction for charged system         0.000000 eV
 dipol+quadrupol energy correction           -0.066928 eV
 added-field ion interaction         -4.809201 eV  (added to PSCEN)


 Broyden mixing:
  rms(total) = 0.82598E+00    rms(broyden)= 0.82596E+00
  rms(prec ) = 0.10722E+01
  weight for this iteration     100.00

 eigenvalues of (default mixing * dielectric matrix)
  average eigenvalue GAMMA=   0.9920
  2.1594  2.1594  0.8699  0.8699  0.6712  0.6712  0.2674  0.2674

 Free energy of the ion-electron system (eV)
  ---------------------------------------------------
  alpha Z        PSCENC =        -5.44897688
  Ewald energy   TEWEN  =      2793.72358906
  -Hartree energ DENC   =     -6004.30667972
  -exchange      EXHF   =         0.00000000
  -V(xc)+E(xc)   XCENC  =      -238.58578197
  PAW double counting   =      4090.71077102    -3649.73046358
  entropy T*S    EENTRO =        -0.14266893
  eigenvalues    EBANDS =      -484.63474028
  atomic energy  EATOM  =      3429.81723989
  Solvation  Ediel_sol  =         0.00000000
  ---------------------------------------------------
  free energy    TOTEN  =       -68.59771140 eV

  energy without entropy =      -68.45504246  energy(sigma->0) =      -68.52637693


--------------------------------------------------------------------------------------------------------




--------------------------------------- Iteration      1(  14)  ---------------------------------------


    POTLOK:  cpu time    0.0143: real time    0.0143
    SETDIJ:  cpu time    0.0421: real time    0.0421
    EDDIAG:  cpu time    0.0716: real time    0.0727
  RMM-DIIS:  cpu time    0.1021: real time    0.1021
    ORTHCH:  cpu time    0.0086: real time    0.0086
       DOS:  cpu time    0.0005: real time    0.0005
    CHARGE:  cpu time    0.0238: real time    0.0238
    MIXING:  cpu time    0.0010: real time    0.0010
    --------------------------------------------
      LOOP:  cpu time    0.2639: real time    0.2651

 eigenvalue-minimisations  :   965
 total energy-change (2. order) : 0.5539067E+00  (-0.3452531E-01)
 number of electron      64.0000018 magnetization 
 augmentation part       -1.3617183 magnetization 

 DIPCOR: dipole corrections for dipol
 direction  3 min pos     9,
 dipolmoment           0.428818      0.428818     -0.428818 electrons x Angstroem
 Tr[quadrupol]      -293.344223

 energy correction for charged system         0.000000 eV
 dipol+quadrupol energy correction           -0.115071 eV
 added-field ion interaction         -6.305963 eV  (added to PSCEN)


 Broyden mixing:
  rms(total) = 0.76948E+00    rms(broyden)= 0.76931E+00
  rms(prec ) = 0.99500E+00
  weight for this iteration     100.00

 eigenvalues of (default mixing * dielectric matrix)
  average eigenvalue GAMMA=   0.9206
  2.3040  1.7063  1.3637  0.7544  0.6409  0.6409  0.2735  0.2735  0.3286

 Free energy of the ion-electron system (eV)
  ---------------------------------------------------
  alpha Z        PSCENC =        -6.99388185
  Ewald energy   TEWEN  =      2793.72358906
  -Hartree energ DENC   =     -6009.06219215
  -exchange      EXHF   =         0.00000000
  -V(xc)+E(xc)   XCENC  =      -238.17365604
  PAW double counting   =      4093.43320386    -3652.41991496
  entropy T*S    EENTRO =        -0.14647718
  eigenvalues    EBANDS =      -478.22171533
  atomic energy  EATOM  =      3429.81723989
  Solvation  Ediel_sol  =         0.00000000
  ---------------------------------------------------
  free energy    TOTEN  =       -68.04380470 eV

  energy without entropy =      -67.89732752  energy(sigma->0) =      -67.97056611


--------------------------------------------------------------------------------------------------------




--------------------------------------- Iteration      1(  15)  ---------------------------------------


    POTLOK:  cpu time    0.0140: real time    0.0140
    SETDIJ:  cpu time    0.0421: real time    0.0421
    EDDIAG:  cpu time    0.0718: real time    0.0724
  RMM-DIIS:  cpu time    0.0983: real time    0.0984
    ORTHCH:  cpu time    0.0088: real time    0.0088
       DOS:  cpu time    0.0005: real time    0.0005
    CHARGE:  cpu time    0.0247: real time    0.0247
    MIXING:  cpu time    0.0010: real time    0.0010
    --------------------------------------------
      LOOP:  cpu time    0.2613: real time    0.2620

 eigenvalue-minimisations  :   939
 total energy-change (2. order) : 0.2237307E+00  (-0.6449748E-02)
 number of electron      64.0000019 magnetization 
 augmentation part       -1.3125081 magnetization 

 DIPCOR: dipole corrections for dipol
 direction  3 min pos     9,
 dipolmoment           0.430328      0.430328     -0.430328 electrons x Angstroem
 Tr[quadrupol]      -293.616850

 energy correction for charged system         0.000000 eV
 dipol+quadrupol energy correction           -0.115883 eV
 added-field ion interaction         -6.328170 eV  (added to PSCEN)


 Broyden mixing:
  rms(total) = 0.57312E+00    rms(broyden)= 0.57300E+00
  rms(prec ) = 0.72259E+00
  weight for this iteration     100.00

 eigenvalues of (default mixing * dielectric matrix)
  average eigenvalue GAMMA=   0.8666
  2.4726  1.4934  1.4934  0.6768  0.6768  0.6639  0.4068  0.2721  0.2721  0.2385

 Free energy of the ion-electron system (eV)
  ---------------------------------------------------
  alpha Z        PSCENC =        -7.01690008
  Ewald energy   TEWEN  =      2793.72358906
  -Hartree energ DENC   =     -6010.01051280
  -exchange      EXHF   =         0.00000000
  -V(xc)+E(xc)   XCENC  =      -238.12205879
  PAW double counting   =      4098.48950111    -3657.48645836
  entropy T*S    EENTRO =        -0.15298384
  eigenvalues    EBANDS =      -477.06149018
  atomic energy  EATOM  =      3429.81723989
  Solvation  Ediel_sol  =         0.00000000
  ---------------------------------------------------
  free energy    TOTEN  =       -67.82007399 eV

  energy without entropy =      -67.66709015  energy(sigma->0) =      -67.74358207


--------------------------------------------------------------------------------------------------------




--------------------------------------- Iteration      1(  16)  ---------------------------------------


    POTLOK:  cpu time    0.0146: real time    0.0146
    SETDIJ:  cpu time    0.0423: real time    0.0423
    EDDIAG:  cpu time    0.1392: real time    0.1921
  RMM-DIIS:  cpu time    0.1084: real time    0.1085
    ORTHCH:  cpu time    0.0089: real time    0.0089
       DOS:  cpu time    0.0005: real time    0.0005
    CHARGE:  cpu time    0.0240: real time    0.0240
    MIXING:  cpu time    0.0010: real time    0.0010
    --------------------------------------------
      LOOP:  cpu time    0.3389: real time    0.3918

 eigenvalue-minimisations  :   971
 total energy-change (2. order) : 0.1499221E+00  (-0.1000337E-01)
 number of electron      64.0000019 magnetization 
 augmentation part       -1.2484791 magnetization 

 DIPCOR: dipole corrections for dipol
 direction  3 min pos     9,
 dipolmoment           0.418393      0.418393     -0.418393 electrons x Angstroem
 Tr[quadrupol]      -293.757360

 energy correction for charged system         0.000000 eV
 dipol+quadrupol energy correction           -0.109544 eV
 added-field ion interaction         -6.152661 eV  (added to PSCEN)


 Broyden mixing:
  rms(total) = 0.31542E+00    rms(broyden)= 0.31531E+00
  rms(prec ) = 0.37123E+00
  weight for this iteration     100.00

 eigenvalues of (default mixing * dielectric matrix)
  average eigenvalue GAMMA=   0.9455
  2.6574  1.1863  1.1863  1.2646  1.2646  0.6966  0.6966  0.6142  0.2676  0.2676
  0.2990

 Free energy of the ion-electron system (eV)
  ---------------------------------------------------
  alpha Z        PSCENC =        -6.83505287
  Ewald energy   TEWEN  =      2793.72358906
  -Hartree energ DENC   =     -6012.21380490
  -exchange      EXHF   =         0.00000000
  -V(xc)+E(xc)   XCENC  =      -238.05668538
  PAW double counting   =      4119.18101864    -3678.20094546
  entropy T*S    EENTRO =        -0.12009242
  eigenvalues    EBANDS =      -474.96541846
  atomic energy  EATOM  =      3429.81723989
  Solvation  Ediel_sol  =         0.00000000
  ---------------------------------------------------
  free energy    TOTEN  =       -67.67015190 eV

  energy without entropy =      -67.55005948  energy(sigma->0) =      -67.61010569


--------------------------------------------------------------------------------------------------------




--------------------------------------- Iteration      1(  17)  ---------------------------------------


    POTLOK:  cpu time    0.0148: real time    0.0227
    SETDIJ:  cpu time    0.0418: real time    0.0418
    EDDIAG:  cpu time    0.0720: real time    0.0730
  RMM-DIIS:  cpu time    0.1112: real time    0.1197
    ORTHCH:  cpu time    0.0091: real time    0.0135
       DOS:  cpu time    0.0019: real time    0.0019
    CHARGE:  cpu time    0.0286: real time    0.0286
    MIXING:  cpu time    0.0010: real time    0.0010
    --------------------------------------------
      LOOP:  cpu time    0.2803: real time    0.3022

 eigenvalue-minimisations  :   898
 total energy-change (2. order) :-0.2550177E+00  (-0.3559648E-02)
 number of electron      64.0000019 magnetization 
 augmentation part       -1.3771321 magnetization 

 DIPCOR: dipole corrections for dipol
 direction  3 min pos     9,
 dipolmoment           0.422512      0.422512     -0.422512 electrons x Angstroem
 Tr[quadrupol]      -293.643899

 energy correction for charged system         0.000000 eV
 dipol+quadrupol energy correction           -0.111711 eV
 added-field ion interaction         -6.213237 eV  (added to PSCEN)


 Broyden mixing:
  rms(total) = 0.66043E+00    rms(broyden)= 0.66038E+00
  rms(prec ) = 0.90199E+00
  weight for this iteration     100.00

 eigenvalues of (default mixing * dielectric matrix)
  average eigenvalue GAMMA=   0.9265
  2.1375  1.5419  1.5419  1.5948  1.0210  0.7449  0.6605  0.6605  0.3911  0.2696
  0.2696  0.2846

 Free energy of the ion-electron system (eV)
  ---------------------------------------------------
  alpha Z        PSCENC =        -6.89779586
  Ewald energy   TEWEN  =      2793.72358906
  -Hartree energ DENC   =     -6013.16001754
  -exchange      EXHF   =         0.00000000
  -V(xc)+E(xc)   XCENC  =      -238.08180806
  PAW double counting   =      4131.00162335    -3690.01049030
  entropy T*S    EENTRO =        -0.14858339
  eigenvalues    EBANDS =      -474.16892679
  atomic energy  EATOM  =      3429.81723989
  Solvation  Ediel_sol  =         0.00000000
  ---------------------------------------------------
  free energy    TOTEN  =       -67.92516963 eV

  energy without entropy =      -67.77658624  energy(sigma->0) =      -67.85087794


--------------------------------------------------------------------------------------------------------




--------------------------------------- Iteration      1(  18)  ---------------------------------------


    POTLOK:  cpu time    0.0222: real time    0.0376
    SETDIJ:  cpu time    0.0553: real time    0.0553
    EDDIAG:  cpu time    0.0784: real time    0.0813
  RMM-DIIS:  cpu time    0.1052: real time    0.1193
    ORTHCH:  cpu time    0.0092: real time    0.0119
       DOS:  cpu time    0.0008: real time    0.0033
    CHARGE:  cpu time    0.0272: real time    0.0292
    MIXING:  cpu time    0.0010: real time    0.0010
    --------------------------------------------
      LOOP:  cpu time    0.2993: real time    0.3388

 eigenvalue-minimisations  :   897
 total energy-change (2. order) : 0.7255239E-01  (-0.1421279E-02)
 number of electron      64.0000019 magnetization 
 augmentation part       -1.3658248 magnetization 

 DIPCOR: dipole corrections for dipol
 direction  3 min pos     9,
 dipolmoment           0.418347      0.418347     -0.418347 electrons x Angstroem
 Tr[quadrupol]      -294.044384

 energy correction for charged system         0.000000 eV
 dipol+quadrupol energy correction           -0.109520 eV
 added-field ion interaction         -6.151984 eV  (added to PSCEN)


 Broyden mixing:
  rms(total) = 0.63068E+00    rms(broyden)= 0.63068E+00
  rms(prec ) = 0.86962E+00
  weight for this iteration     100.00

 eigenvalues of (default mixing * dielectric matrix)
  average eigenvalue GAMMA=   0.9665
  2.4701  2.4701  1.2814  1.2814  0.8781  0.8781  0.6383  0.6383  0.6297  0.5715
  0.2690  0.2690  0.2903

 Free energy of the ion-electron system (eV)
  ---------------------------------------------------
  alpha Z        PSCENC =        -6.83435143
  Ewald energy   TEWEN  =      2793.72358906
  -Hartree energ DENC   =     -6012.86361979
  -exchange      EXHF   =         0.00000000
  -V(xc)+E(xc)   XCENC  =      -238.18617518
  PAW double counting   =      4130.30532013    -3689.31361406
  entropy T*S    EENTRO =        -0.15120440
  eigenvalues    EBANDS =      -474.34980146
  atomic energy  EATOM  =      3429.81723989
  Solvation  Ediel_sol  =         0.00000000
  ---------------------------------------------------
  free energy    TOTEN  =       -67.85261724 eV

  energy without entropy =      -67.70141284  energy(sigma->0) =      -67.77701504


--------------------------------------------------------------------------------------------------------




--------------------------------------- Iteration      1(  19)  ---------------------------------------


    POTLOK:  cpu time    0.0150: real time    0.0224
    SETDIJ:  cpu time    0.0422: real time    0.0422
    EDDIAG:  cpu time    0.0864: real time    0.0924
  RMM-DIIS:  cpu time    0.0950: real time    0.0981
    ORTHCH:  cpu time    0.0087: real time    0.0087
       DOS:  cpu time    0.0005: real time    0.0005
    CHARGE:  cpu time    0.0239: real time    0.0239
    MIXING:  cpu time    0.0012: real time    0.0012
    --------------------------------------------
      LOOP:  cpu time    0.2729: real time    0.2893

 eigenvalue-minimisations  :   934
 total energy-change (2. order) : 0.2582096E+00  (-0.2942486E-02)
 number of electron      64.0000019 magnetization 
 augmentation part       -1.2333545 magnetization 

 DIPCOR: dipole corrections for dipol
 direction  3 min pos     9,
 dipolmoment           0.428254      0.428254     -0.428254 electrons x Angstroem
 Tr[quadrupol]      -295.717688

 energy correction for charged system         0.000000 eV
 dipol+quadrupol energy correction           -0.114769 eV
 added-field ion interaction         -6.297681 eV  (added to PSCEN)


 Broyden mixing:
  rms(total) = 0.22709E+00    rms(broyden)= 0.22686E+00
  rms(prec ) = 0.28070E+00
  weight for this iteration     100.00

 eigenvalues of (default mixing * dielectric matrix)
  average eigenvalue GAMMA=   0.9625
  2.5288  2.5288  1.3521  1.3521  1.2187  0.7699  0.7699  0.6135  0.6135  0.5458
  0.2688  0.2688  0.3540  0.2910

 Free energy of the ion-electron system (eV)
  ---------------------------------------------------
  alpha Z        PSCENC =        -6.98529772
  Ewald energy   TEWEN  =      2793.72358906
  -Hartree energ DENC   =     -6015.09109355
  -exchange      EXHF   =         0.00000000
  -V(xc)+E(xc)   XCENC  =      -238.16188313
  PAW double counting   =      4128.71774692    -3687.73824066
  entropy T*S    EENTRO =        -0.11716820
  eigenvalues    EBANDS =      -471.75930025
  atomic energy  EATOM  =      3429.81723989
  Solvation  Ediel_sol  =         0.00000000
  ---------------------------------------------------
  free energy    TOTEN  =       -67.59440765 eV

  energy without entropy =      -67.47723945  energy(sigma->0) =      -67.53582355


--------------------------------------------------------------------------------------------------------




--------------------------------------- Iteration      1(  20)  ---------------------------------------


    POTLOK:  cpu time    0.0141: real time    0.0141
    SETDIJ:  cpu time    0.0421: real time    0.0421
    EDDIAG:  cpu time    0.1110: real time    0.1110
  RMM-DIIS:  cpu time    0.1009: real time    0.1018
    ORTHCH:  cpu time    0.0088: real time    0.0088
       DOS:  cpu time    0.0005: real time    0.0005
    CHARGE:  cpu time    0.0240: real time    0.0240
    MIXING:  cpu time    0.0014: real time    0.0014
    --------------------------------------------
      LOOP:  cpu time    0.3029: real time    0.3038

 eigenvalue-minimisations  :   917
 total energy-change (2. order) : 0.2951232E-01  (-0.9494090E-03)
 number of electron      64.0000019 magnetization 
 augmentation part       -1.2255564 magnetization 

 DIPCOR: dipole corrections for dipol
 direction  3 min pos     9,
 dipolmoment           0.436537      0.436537     -0.436537 electrons x Angstroem
 Tr[quadrupol]      -296.819245

 energy correction for charged system         0.000000 eV
 dipol+quadrupol energy correction           -0.119251 eV
 added-field ion interaction         -6.419478 eV  (added to PSCEN)


 Broyden mixing:
  rms(total) = 0.19685E+00    rms(broyden)= 0.19679E+00
  rms(prec ) = 0.23322E+00
  weight for this iteration     100.00

 eigenvalues of (default mixing * dielectric matrix)
  average eigenvalue GAMMA=   0.9280
  1.9473  1.8883  1.8883  1.3805  1.3805  0.9350  0.7688  0.7688  0.5844  0.5844
  0.6053  0.2688  0.2688  0.2911  0.3589

 Free energy of the ion-electron system (eV)
  ---------------------------------------------------
  alpha Z        PSCENC =        -7.11157615
  Ewald energy   TEWEN  =      2793.72358906
  -Hartree energ DENC   =     -6017.47670213
  -exchange      EXHF   =         0.00000000
  -V(xc)+E(xc)   XCENC  =      -238.09282405
  PAW double counting   =      4130.51760792    -3689.54346814
  entropy T*S    EENTRO =        -0.11617184
  eigenvalues    EBANDS =      -469.28258989
  atomic energy  EATOM  =      3429.81723989
  Solvation  Ediel_sol  =         0.00000000
  ---------------------------------------------------
  free energy    TOTEN  =       -67.56489533 eV

  energy without entropy =      -67.44872350  energy(sigma->0) =      -67.50680941


--------------------------------------------------------------------------------------------------------




--------------------------------------- Iteration      1(  21)  ---------------------------------------


    POTLOK:  cpu time    0.0143: real time    0.0143
    SETDIJ:  cpu time    0.0419: real time    0.0419
    EDDIAG:  cpu time    0.0720: real time    0.0724
  RMM-DIIS:  cpu time    0.0998: real time    0.1001
    ORTHCH:  cpu time    0.0088: real time    0.0087
       DOS:  cpu time    0.0005: real time    0.0005
    CHARGE:  cpu time    0.0242: real time    0.0242
    MIXING:  cpu time    0.0010: real time    0.0010
    --------------------------------------------
      LOOP:  cpu time    0.2626: real time    0.2632

 eigenvalue-minimisations  :   924
 total energy-change (2. order) : 0.7704554E-02  (-0.4741029E-03)
 number of electron      64.0000020 magnetization 
 augmentation part       -1.1587356 magnetization 

 DIPCOR: dipole corrections for dipol
 direction  3 min pos     9,
 dipolmoment           0.412113      0.412113     -0.412113 electrons x Angstroem
 Tr[quadrupol]      -297.211296

 energy correction for charged system         0.000000 eV
 dipol+quadrupol energy correction           -0.106280 eV
 added-field ion interaction         -6.060306 eV  (added to PSCEN)


 Broyden mixing:
  rms(total) = 0.19555E+00    rms(broyden)= 0.19547E+00
  rms(prec ) = 0.24131E+00
  weight for this iteration     100.00

 eigenvalues of (default mixing * dielectric matrix)
  average eigenvalue GAMMA=   0.8712
  2.0618  1.8463  1.8463  1.3775  1.3775  0.9204  0.7683  0.7683  0.5824  0.5824
  0.6084  0.3588  0.2688  0.2688  0.2911  0.0125

 Free energy of the ion-electron system (eV)
  ---------------------------------------------------
  alpha Z        PSCENC =        -6.73943402
  Ewald energy   TEWEN  =      2793.72358906
  -Hartree energ DENC   =     -6018.03710489
  -exchange      EXHF   =         0.00000000
  -V(xc)+E(xc)   XCENC  =      -238.09708984
  PAW double counting   =      4128.65699468    -3687.68842204
  entropy T*S    EENTRO =        -0.09428899
  eigenvalues    EBANDS =      -469.09867463
  atomic energy  EATOM  =      3429.81723989
  Solvation  Ediel_sol  =         0.00000000
  ---------------------------------------------------
  free energy    TOTEN  =       -67.55719078 eV

  energy without entropy =      -67.46290179  energy(sigma->0) =      -67.51004628


--------------------------------------------------------------------------------------------------------




--------------------------------------- Iteration      1(  22)  ---------------------------------------


    POTLOK:  cpu time    0.0141: real time    0.0141
    SETDIJ:  cpu time    0.0420: real time    0.0420
    EDDIAG:  cpu time    0.0725: real time    0.0737
  RMM-DIIS:  cpu time    0.1041: real time    0.1041
    ORTHCH:  cpu time    0.0087: real time    0.0087
       DOS:  cpu time    0.0005: real time    0.0005
    CHARGE:  cpu time    0.0237: real time    0.0237
    MIXING:  cpu time    0.0014: real time    0.0014
    --------------------------------------------
      LOOP:  cpu time    0.2670: real time    0.2681

 eigenvalue-minimisations  :   947
 total energy-change (2. order) : 0.1001850E-01  (-0.3794718E-03)
 number of electron      64.0000020 magnetization 
 augmentation part       -1.1829841 magnetization 

 DIPCOR: dipole corrections for dipol
 direction  3 min pos     9,
 dipolmoment           0.414703      0.414703     -0.414703 electrons x Angstroem
 Tr[quadrupol]      -297.267600

 energy correction for charged system         0.000000 eV
 dipol+quadrupol energy correction           -0.107620 eV
 added-field ion interaction         -6.098398 eV  (added to PSCEN)


 Broyden mixing:
  rms(total) = 0.15377E+00    rms(broyden)= 0.15377E+00
  rms(prec ) = 0.17371E+00
  weight for this iteration     100.00

 eigenvalues of (default mixing * dielectric matrix)
  average eigenvalue GAMMA=   0.9253
  2.3664  1.6614  1.6614  1.5029  1.5029  0.6020  0.8677  0.8677  0.8217  0.8217
  0.6596  0.6596  0.5436  0.2688  0.2688  0.2912  0.3628

 Free energy of the ion-electron system (eV)
  ---------------------------------------------------
  alpha Z        PSCENC =        -6.77886574
  Ewald energy   TEWEN  =      2793.72358906
  -Hartree energ DENC   =     -6017.76652137
  -exchange      EXHF   =         0.00000000
  -V(xc)+E(xc)   XCENC  =      -238.13116406
  PAW double counting   =      4127.45747239    -3686.48322884
  entropy T*S    EENTRO =        -0.10684723
  eigenvalues    EBANDS =      -469.27884638
  atomic energy  EATOM  =      3429.81723989
  Solvation  Ediel_sol  =         0.00000000
  ---------------------------------------------------
  free energy    TOTEN  =       -67.54717228 eV

  energy without entropy =      -67.44032506  energy(sigma->0) =      -67.49374867


--------------------------------------------------------------------------------------------------------




--------------------------------------- Iteration      1(  23)  ---------------------------------------


    POTLOK:  cpu time    0.0140: real time    0.0140
    SETDIJ:  cpu time    0.0420: real time    0.0420
    EDDIAG:  cpu time    0.2360: real time    0.3415
  RMM-DIIS:  cpu time    0.1001: real time    0.1001
    ORTHCH:  cpu time    0.0090: real time    0.0090
       DOS:  cpu time    0.0005: real time    0.0005
    CHARGE:  cpu time    0.0238: real time    0.0238
    MIXING:  cpu time    0.0015: real time    0.0015
    --------------------------------------------
      LOOP:  cpu time    0.4269: real time    0.5325

 eigenvalue-minimisations  :   942
[...]
     10      -6.1213      2.00000
     11      -6.0538      2.00000
     12      -5.8310      2.00000
     13      -5.8064      2.00000
     14      -5.6338      2.00000
     15      -5.1722      2.00000
     16      -5.1226      2.00000
     17      -5.1186      2.00000
     18      -3.7486      2.00000
     19      -3.7348      2.00000
     20      -3.5452      2.00000
     21      -3.5122      2.00000
     22      -3.4101      2.00000
     23      -3.3610      2.00000
     24      -2.5489      2.00000
     25      -2.4719      2.00000
     26      -2.4156      2.00000
     27      -2.1030      2.00000
     28      -1.9921      2.00000
     29      -1.9341      2.00000
     30      -1.4616      1.99190
     31      -1.3725      1.83489
     32      -1.3418      1.65968
     33      -1.3346      1.60564
     34       0.5561      0.00000
     35       0.9701      0.00000
     36       1.6623      0.00000
     37       2.2713      0.00000
     38       2.2894      0.00000
     39       2.7111      0.00000
     40       3.1081      0.00000
     41       3.3690      0.00000
     42       3.6455      0.00000
     43       3.9325      0.00000
     44       4.4675      0.00000
     45       4.6711      0.00000
     46       4.9359      0.00000
     47       5.3180      0.00000
     48       5.5126      0.00000

 k-point     3 :       0.5000    0.0000    0.0000
  band No.  band energies     occupation 
      1     -17.5227      2.00000
      2     -17.4205      2.00000
      3     -17.3776      2.00000
      4     -16.6232      2.00000
      5     -16.5722      2.00000
      6     -16.1398      2.00000
      7     -15.8562      2.00000
      8     -15.1513      2.00000
      9      -6.2959      2.00000
     10      -6.1850      2.00000
     11      -6.0947      2.00000
     12      -5.8464      2.00000
     13      -5.7954      2.00000
     14      -5.6079      2.00000
     15      -5.1838      2.00000
     16      -5.1330      2.00000
     17      -5.1324      2.00000
     18      -3.7907      2.00000
     19      -3.7520      2.00000
     20      -3.5462      2.00000
     21      -3.4859      2.00000
     22      -3.3866      2.00000
     23      -3.3188      2.00000
     24      -2.5591      2.00000
     25      -2.4401      2.00000
     26      -2.3793      2.00000
     27      -2.0888      2.00000
     28      -1.9759      2.00000
     29      -1.9071      2.00000
     30      -1.3766      1.85172
     31      -1.3420      1.66121
     32      -1.3414      1.65690
     33      -0.9750      0.00002
     34      -0.0174      0.00000
     35       1.4231      0.00000
     36       2.0426      0.00000
     37       2.2225      0.00000
     38       2.3159      0.00000
     39       2.6432      0.00000
     40       2.6762      0.00000
     41       3.3234      0.00000
     42       3.3983      0.00000
     43       3.4653      0.00000
     44       4.2334      0.00000
     45       4.3673      0.00000
     46       4.4142      0.00000
     47       4.8662      0.00000
     48       5.3468      0.00000

 k-point     4 :      -0.0000    0.3333   -0.0000
  band No.  band energies     occupation 
      1     -17.5397      2.00000
      2     -17.4099      2.00000
      3     -17.3739      2.00000
      4     -16.6386      2.00000
      5     -16.5580      2.00000
      6     -16.1393      2.00000
      7     -15.8559      2.00000
      8     -15.1500      2.00000
      9      -6.2578      2.00000
     10      -6.1549      2.00000
     11      -6.0737      2.00000
     12      -5.8363      2.00000
     13      -5.7997      2.00000
     14      -5.6201      2.00000
     15      -5.1771      2.00000
     16      -5.1285      2.00000
     17      -5.1259      2.00000
     18      -3.7686      2.00000
     19      -3.7435      2.00000
     20      -3.5438      2.00000
     21      -3.4964      2.00000
     22      -3.4039      2.00000
     23      -3.3405      2.00000
     24      -2.5541      2.00000
     25      -2.4566      2.00000
     26      -2.3966      2.00000
     27      -2.0964      2.00000
     28      -1.9849      2.00000
     29      -1.9215      2.00000
     30      -1.3821      1.87247
     31      -1.3447      1.68032
     32      -1.3384      1.63484
     33      -1.2485      0.71503
     34       0.3200      0.00000
     35       1.1471      0.00000
     36       1.8711      0.00000
     37       2.1685      0.00000
     38       2.3062      0.00000
     39       2.6967      0.00000
     40       2.9948      0.00000
     41       3.2796      0.00000
     42       3.3682      0.00000
     43       3.4956      0.00000
     44       3.9021      0.00000
     45       4.3102      0.00000
     46       4.5579      0.00000
     47       4.7892      0.00000
     48       5.3324      0.00000

 k-point     5 :       0.2500    0.3333    0.0000
  band No.  band energies     occupation 
      1     -17.5176      2.00000
      2     -17.4179      2.00000
      3     -17.3842      2.00000
      4     -16.6155      2.00000
      5     -16.5793      2.00000
      6     -16.1401      2.00000
      7     -15.8561      2.00000
      8     -15.1518      2.00000
      9      -6.3081      2.00000
     10      -6.1816      2.00000
     11      -6.0925      2.00000
     12      -5.8476      2.00000
     13      -5.8373      2.00000
     14      -5.5944      2.00000
     15      -5.1646      2.00000
     16      -5.1501      2.00000
     17      -5.1412      2.00000
     18      -3.7946      2.00000
     19      -3.7700      2.00000
     20      -3.5232      2.00000
     21      -3.4420      2.00000
     22      -3.3919      2.00000
     23      -3.3529      2.00000
     24      -2.5148      2.00000
     25      -2.4622      2.00000
     26      -2.3792      2.00000
     27      -2.0681      2.00000
     28      -1.9879      2.00000
     29      -1.9069      2.00000
     30      -1.3659      1.80459
     31      -1.3489      1.70853
     32      -1.3341      1.60204
     33      -0.9224      0.00000
     34       0.1532      0.00000
     35       1.0520      0.00000
     36       1.5979      0.00000
     37       2.4265      0.00000
     38       2.6039      0.00000
     39       2.8155      0.00000
     40       2.9329      0.00000
     41       3.1802      0.00000
     42       3.4506      0.00000
     43       3.5265      0.00000
     44       3.9969      0.00000
     45       4.4788      0.00000
     46       4.8816      0.00000
     47       5.0968      0.00000
     48       5.3797      0.00000

 k-point     6 :       0.5000    0.3333    0.0000
  band No.  band energies     occupation 
      1     -17.5237      2.00000
      2     -17.4167      2.00000
      3     -17.3803      2.00000
      4     -16.6235      2.00000
      5     -16.5717      2.00000
      6     -16.1398      2.00000
      7     -15.8560      2.00000
      8     -15.1513      2.00000
      9      -6.2961      2.00000
     10      -6.1766      2.00000
     11      -6.0896      2.00000
     12      -5.8436      2.00000
     13      -5.8203      2.00000
     14      -5.6025      2.00000
     15      -5.1733      2.00000
     16      -5.1436      2.00000
     17      -5.1324      2.00000
     18      -3.7873      2.00000
     19      -3.7614      2.00000
     20      -3.5307      2.00000
     21      -3.4659      2.00000
     22      -3.3980      2.00000
     23      -3.3370      2.00000
     24      -2.5352      2.00000
     25      -2.4546      2.00000
     26      -2.3814      2.00000
     27      -2.0821      2.00000
     28      -1.9814      2.00000
     29      -1.9102      2.00000
     30      -1.3729      1.83665
     31      -1.3486      1.70608
     32      -1.3336      1.59761
     33      -1.0129      0.00022
     34       0.1410      0.00000
     35       1.2895      0.00000
     36       1.5577      0.00000
     37       2.3044      0.00000
     38       2.4681      0.00000
     39       2.8268      0.00000
     40       2.9685      0.00000
     41       3.1959      0.00000
     42       3.3792      0.00000
     43       3.6026      0.00000
     44       3.9012      0.00000
     45       4.3689      0.00000
     46       4.6691      0.00000
     47       4.8972      0.00000
     48       5.2318      0.00000

 k-point     7 :      -0.2500    0.3333    0.0000
  band No.  band energies     occupation 
      1     -17.5452      2.00000
      2     -17.4065      2.00000
      3     -17.3728      2.00000
      4     -16.6430      2.00000
      5     -16.5540      2.00000
      6     -16.1391      2.00000
      7     -15.8558      2.00000
      8     -15.1496      2.00000
      9      -6.2428      2.00000
     10      -6.1412      2.00000
     11      -6.0652      2.00000
     12      -5.8330      2.00000
     13      -5.8067      2.00000
     14      -5.6238      2.00000
     15      -5.1733      2.00000
     16      -5.1295      2.00000
     17      -5.1220      2.00000
     18      -3.7595      2.00000
     19      -3.7427      2.00000
     20      -3.5414      2.00000
     21      -3.4984      2.00000
     22      -3.4105      2.00000
     23      -3.3499      2.00000
     24      -2.5481      2.00000
     25      -2.4658      2.00000
     26      -2.4030      2.00000
     27      -2.0969      2.00000
     28      -1.9896      2.00000
     29      -1.9265      2.00000
     30      -1.3880      1.89196
     31      -1.3499      1.71483
     32      -1.3359      1.61577
     33      -1.3193      1.47551
     34       0.4417      0.00000
     35       1.0606      0.00000
     36       1.7819      0.00000
     37       1.9990      0.00000
     38       2.4946      0.00000
     39       2.7093      0.00000
     40       3.0627      0.00000
     41       3.2734      0.00000
     42       3.4696      0.00000
     43       3.9520      0.00000
     44       4.5680      0.00000
     45       4.6385      0.00000
     46       4.8630      0.00000
     47       5.3490      0.00000
     48       5.6014      0.00000


--------------------------------------------------------------------------------------------------------


 soft charge-density along one line, spin component           1
         0         1         2         3         4         5         6         7         8         9
 total charge-density along one line
 
 pseudopotential strength for first ion, spin component:           1
  1.428   6.420  -0.000   0.001  -0.000
  6.420  28.409  -0.000   0.006  -0.000
 -0.000  -0.000   5.206  -0.000   0.001
  0.001   0.006  -0.000   5.205  -0.000
 -0.000  -0.000   0.001  -0.000   5.206
 total augmentation occupancy for first ion, spin component:           1
  0.577   0.003  -0.001   0.014  -0.001
  0.003   0.000   0.000   0.000   0.000
 -0.001   0.000   0.027  -0.015   0.014
  0.014   0.000  -0.015   0.024  -0.015
 -0.001   0.000   0.014  -0.015   0.027


------------------------ aborting loop because EDIFF is reached ----------------------------------------


    CHARGE:  cpu time    0.0247: real time    0.0247
    FORLOC:  cpu time    0.0013: real time    0.0013
    FORNL :  cpu time    0.0406: real time    0.0429
    STRESS:  cpu time    0.1145: real time    0.1154
    FORCOR:  cpu time    0.0154: real time    0.0157
    FORHAR:  cpu time    0.0047: real time    0.0048
    MIXING:  cpu time    0.0035: real time    0.0035
    OFIELD:  cpu time    0.0003: real time    0.0003

  FORCE on cell =-STRESS in cart. coord.  units (eV):
  Direction    XX          YY          ZZ          XY          YZ          ZX
  --------------------------------------------------------------------------------------
  Alpha Z    -0.57285    -0.57285    -0.57285
  Ewald    4235.20448  4235.20448 -5676.68944     0.00051    -0.00105    -0.00105
  Hartree  5184.74917  5184.74916 -4326.42159     0.00839    -0.00788    -0.00788
  E(xc)    -253.90674  -253.90644  -253.85660     0.00110    -0.00250    -0.00147
  Local  -10399.30923-10399.31715  9020.18893    -0.00929     0.01706     0.01722
  n-local   266.33011   266.35687   265.35016     0.02203    -0.01626    -0.01910
  augment   -50.60878   -50.60972   -51.00955     0.00764    -0.00453    -0.00456
  Kinetic  1018.11016  1017.88766  1019.88832     0.00177    -0.03045    -0.02429
  Fock        0.00000     0.00000     0.00000     0.00000     0.00000     0.00000
  -------------------------------------------------------------------------------------
  Total      -0.10583    -0.10583    -3.12261     0.03216    -0.04338    -0.04338
  in kB      -0.23454    -0.23454    -6.92057     0.07127    -0.09613    -0.09613
  external pressure =       -2.46 kB  Pullay stress =        0.00 kB


 VOLUME and BASIS-vectors are now :
 -----------------------------------------------------------------------------
  energy-cutoff  :      400.00
  volume of cell :      722.91
      direct lattice vectors                 reciprocal lattice vectors
     6.088892190  1.631513745  0.000000000     0.129526868  0.129526868  0.259053736
    -4.457378445  4.457378445  0.000000000    -0.047410124  0.176936992  0.129526868
   -21.007140066-21.007140066 21.007140066     0.000000000  0.000000000  0.047602862

  length of vectors
     6.303685050  6.303685050 36.385433917     0.317274734  0.224347116  0.047602862


 FORCES acting on ions
    electron-ion (+dipol)            ewald-force                    non-local-force                 convergence-correction
 -----------------------------------------------------------------------------------------------
   0.200E+01 0.200E+01 0.566E+02   -.190E+01 -.190E+01 -.564E+02   0.334E-01 0.334E-01 -.503E+00   0.204E-06 0.204E-06 -.886E-06
   -.470E-01 -.471E-01 0.132E+02   0.103E+00 0.103E+00 -.134E+02   -.831E-01 -.831E-01 0.596E-01   0.525E-08 0.525E-08 -.158E-05
   0.382E+00 0.382E+00 -.293E+02   -.799E-01 -.799E-01 0.292E+02   -.170E+00 -.170E+00 0.805E-01   0.116E-06 0.116E-06 -.144E-05
   0.721E+01 0.721E+01 -.733E+02   -.591E+01 -.591E+01 0.720E+02   -.103E+01 -.103E+01 0.133E+01   -.163E-06 -.163E-06 -.549E-06
   -.254E+01 0.783E+00 0.566E+02   0.259E+01 -.694E+00 -.564E+02   -.484E-01 0.142E-01 -.509E+00   -.277E-06 0.739E-07 -.885E-06
   0.783E+00 -.254E+01 0.566E+02   -.694E+00 0.259E+01 -.564E+02   0.142E-01 -.484E-01 -.509E+00   0.739E-07 -.277E-06 -.885E-06
   0.257E+00 0.346E-01 0.132E+02   -.141E+00 0.378E-01 -.134E+02   0.111E+00 -.306E-01 0.587E-01   -.777E-08 0.402E-08 -.157E-05
   0.346E-01 0.257E+00 0.132E+02   0.378E-01 -.141E+00 -.134E+02   -.306E-01 0.111E+00 0.587E-01   0.402E-08 -.777E-08 -.157E-05
   -.329E+00 0.192E+00 -.293E+02   0.109E+00 -.292E-01 0.292E+02   0.239E+00 -.640E-01 0.879E-01   -.147E-06 0.825E-08 -.145E-05
   0.192E+00 -.329E+00 -.293E+02   -.292E-01 0.109E+00 0.292E+02   -.640E-01 0.239E+00 0.879E-01   0.826E-08 -.147E-06 -.145E-05
   -.965E+01 0.269E+01 -.733E+02   0.808E+01 -.216E+01 0.720E+02   0.142E+01 -.374E+00 0.134E+01   0.213E-06 -.540E-08 -.517E-06
   0.269E+01 -.965E+01 -.733E+02   -.216E+01 0.808E+01 0.720E+02   -.374E+00 0.142E+01 0.134E+01   -.542E-08 0.213E-06 -.517E-06
   0.490E+00 0.490E+00 0.404E+03   -.110E-03 -.110E-03 -.412E+03   -.827E-02 -.827E-02 0.102E+02   -.256E-06 -.256E-06 0.297E-05
   0.488E+00 0.488E+00 0.216E+03   0.679E-06 0.679E-06 -.215E+03   -.149E-02 -.149E-02 0.959E+00   0.854E-08 0.857E-08 -.846E-05
   0.490E+00 0.490E+00 -.480E+02   0.778E-06 0.778E-06 0.475E+02   0.187E-02 0.187E-02 0.192E+01   0.742E-08 0.739E-08 -.101E-04
   0.487E+00 0.487E+00 -.300E+03   -.200E-04 -.200E-04 0.300E+03   0.110E-01 0.110E-01 0.188E+01   -.492E-06 -.492E-06 -.125E-04
   0.572E+00 0.572E+00 0.386E+03   0.233E-04 0.233E-04 -.387E+03   -.914E-03 -.914E-03 0.221E+01   0.282E-08 0.278E-08 -.468E-05
   0.571E+00 0.571E+00 0.937E+02   -.950E-06 -.950E-06 -.930E+02   -.474E-05 -.474E-05 0.743E+00   -.992E-08 -.992E-08 -.135E-04
   0.571E+00 0.571E+00 -.213E+03   -.853E-06 -.853E-06 0.214E+03   -.336E-03 -.336E-03 0.713E+00   0.380E-06 0.380E-06 -.822E-05
   0.596E+00 0.596E+00 -.450E+03   0.128E-03 0.128E-03 0.452E+03   -.234E-01 -.234E-01 -.817E+00   -.213E-05 -.213E-05 -.102E-04
 -----------------------------------------------------------------------------------------------
   0.524E+01 0.524E+01 -.103E+02   0.529E-14 0.783E-14 0.568E-13   -.990E-02 -.990E-02 0.207E+02   -.247E-05 -.247E-05 -.780E-04
 
 
 POSITION                                       TOTAL-FORCE (eV/Angst)
 -----------------------------------------------------------------------------------
     -9.51542     -5.05804      7.28673        -0.126048     -0.126048     -0.873187
    -12.08889     -7.63151      9.86020        -0.288412     -0.288412     -0.704159
    -14.66236    -10.20498     12.43367        -0.129779     -0.129779     -0.587551
    -17.23583    -12.77845     15.00714         0.005332      0.005332     -0.474340
     -6.47098     -4.24229      7.28673        -0.255416     -0.158750     -0.878263
     -4.24229     -6.47098      7.28673        -0.158750     -0.255416     -0.878263
     -9.04445     -6.81576      9.86020        -0.034936     -0.219821     -0.705063
     -6.81576     -9.04445      9.86020        -0.219821     -0.034936     -0.705063
    -11.61791     -9.38922     12.43367        -0.242844     -0.163033     -0.580758
     -9.38922    -11.61791     12.43367        -0.163033     -0.242844     -0.580758
    -14.19138    -11.96269     15.00714        -0.423833     -0.112427     -0.469974
    -11.96269    -14.19138     15.00714        -0.112427     -0.423833     -0.469974
     -8.22869     -3.77131      6.00000         0.219782      0.219782      1.325827
    -10.80216     -6.34478      8.57347         0.225108      0.225108      0.700074
    -13.37563     -8.91825     11.14694         0.230243      0.230243      0.938385
    -15.94909    -11.49172     13.72041         0.236338      0.236338      1.072805
     -7.28673     -7.28673      7.28673         0.309150      0.309150      1.284958
     -9.86020     -9.86020      9.86020         0.309019      0.309019      0.921040
    -12.43367    -12.43367     12.43367         0.309008      0.309008      1.027598
    -15.00714    -15.00714     15.00714         0.311318      0.311318      0.636666
 -----------------------------------------------------------------------------------
    total drift:                                5.232276      5.231854     10.430303


--------------------------------------------------------------------------------------------------------



  FREE ENERGIE OF THE ION-ELECTRON SYSTEM (eV)
  ---------------------------------------------------
  free  energy   TOTEN  =       -67.47741593 eV

  energy  without entropy=      -67.36713420  energy(sigma->0) =      -67.42227506
 


--------------------------------------------------------------------------------------------------------


    POTLOK:  cpu time    0.0578: real time    0.0581


--------------------------------------------------------------------------------------------------------


     LOOP+:  cpu time   15.8867: real time   16.8794
    4ORBIT:  cpu time    0.0000: real time    0.0000

 total amount of memory used by VASP MPI-rank0    34712. kBytes
=======================================================================

   base      :      30000. kBytes
   nonlr-proj:       1105. kBytes
   fftplans  :       1090. kBytes
   grid      :       1942. kBytes
   one-center:          6. kBytes
   wavefun   :        569. kBytes
 
  
  
 General timing and accounting informations for this job:
 ========================================================
  
                  Total CPU time used (sec):       17.515
                            User time (sec):       16.645
                          System time (sec):        0.870
                         Elapsed time (sec):       18.800
  
                   Maximum memory used (kb):       93192.
                   Average memory used (kb):          N/A
  
                          Minor page faults:       122111
                          Major page faults:            0
                 Voluntary context switches:         2404
