<?xml version="1.0" encoding="ISO-8859-1"?>
<modeling>
 <generator>
  <i name="program" type="string">vasp </i>
  <i name="version" type="string">6.2.1  </i>
  <i name="subversion" type="string">16May21 (build Dec 23 2021 00:35:04) complex                          parallel </i>
  <i name="platform" type="string">LinuxIFC </i>
  <i name="date" type="string">2023 03 08 </i>
  <i name="time" type="string">11:51:56 </i>
 </generator>
 <incar>
  <i type="string" name="PREC">Normal</i>
  <i type="string" name="ALGO">Fast</i>
  <i type="int" name="ISPIN">     0</i>
  <i name="AMIN">      0.01000000</i>
  <i type="int" name="NELM">   150</i>
  <i type="int" name="IBRION">    -1</i>
  <i name="EDIFF">      0.00000001</i>
  <i name="EDIFFG">     -0.01000000</i>
  <i type="int" name="NSW">     0</i>
  <i type="int" name="ISIF">     3</i>
  <i name="ENCUT">    400.00000000</i>
  <i type="string" name="LREAL">AUTO</i>
  <i type="int" name="ISMEAR">     0</i>
  <i name="SIGMA">      0.10000000</i>
  <i name="KSPACING">      0.50000000</i>
  <i type="logical" name="KGAMMA"> T  </i>
  <i type="int" name="NWRITE">     1</i>
  <i type="int" name="LMAXMIX">     6</i>
  <i type="logical" name="LWAVE"> F  </i>
  <i type="logical" name="LCHARG"> F  </i>
  <i type="logical" name="LASPH"> T  </i>
  <i type="string" name="GGA">PE</i>
  <i type="logical" name="LDIPOL"> T  </i>
  <i type="int" name="IDIPOL">     3</i>
  <v name="DIPOL">      0.19090000      0.25730000      0.52250000</v>
 </incar>
 <primitive_cell>
  <structure name="primitive_cell" >
   <crystal>
    <varray name="basis" >
     <v>       6.08889219       1.63151375       0.00000000 </v>
     <v>      -4.45737844       4.45737844       0.00000000 </v>
     <v>     -21.00714007     -21.00714007      21.00714007 </v>
    </varray>
    <i name="volume">    722.91390052 </i>
    <varray name="rec_basis" >
     <v>       0.12952687       0.12952687       0.25905374 </v>
     <v>      -0.04741012       0.17693699       0.12952687 </v>
     <v>       0.00000000       0.00000000       0.04760286 </v>
    </varray>
   </crystal>
   <varray name="positions" >
    <v>       0.00000035       0.50000017       0.34686940 </v>
    <v>       0.00000035       0.50000017       0.46937388 </v>
    <v>       0.00000035       0.50000017       0.59187835 </v>
    <v>       0.00000035       0.50000017       0.71438283 </v>
    <v>       0.50000027       0.50000017       0.34686940 </v>
    <v>       0.50000027       0.00000010       0.34686940 </v>
    <v>       0.50000027       0.50000017       0.46937388 </v>
    <v>       0.50000027       0.00000010       0.46937388 </v>
    <v>       0.50000027       0.50000017       0.59187835 </v>
    <v>       0.50000027       0.00000010       0.59187835 </v>
    <v>       0.50000027       0.50000017       0.71438283 </v>
    <v>       0.50000027       0.00000010       0.71438283 </v>
    <v>       0.00000035       0.50000017       0.28561717 </v>
    <v>       0.00000035       0.50000017       0.40812165 </v>
    <v>       0.00000035       0.50000017       0.53062612 </v>
    <v>       0.00000035       0.50000017       0.65313060 </v>
    <v>       0.00000020       0.00000010       0.34686938 </v>
    <v>       0.00000020       0.00000010       0.46937386 </v>
    <v>       0.00000020       0.00000010       0.59187833 </v>
    <v>       0.00000020       0.00000010       0.71438281 </v>
   </varray>
  </structure>
  <varray name="primitive_index" >
   <v type="int" >        1 </v>
   <v type="int" >        2 </v>
   <v type="int" >        3 </v>
   <v type="int" >        4 </v>
   <v type="int" >        5 </v>
   <v type="int" >        6 </v>
   <v type="int" >        7 </v>
   <v type="int" >        8 </v>
   <v type="int" >        9 </v>
   <v type="int" >       10 </v>
   <v type="int" >       11 </v>
   <v type="int" >       12 </v>
   <v type="int" >       13 </v>
   <v type="int" >       14 </v>
   <v type="int" >       15 </v>
   <v type="int" >       16 </v>
   <v type="int" >       17 </v>
   <v type="int" >       18 </v>
   <v type="int" >       19 </v>
   <v type="int" >       20 </v>
  </varray>
 </primitive_cell>
 <kpoints>
  <generation param="Gamma">
   <v type="int" name="divisions">       4        3        1 </v>
   <v name="usershift">      0.00000000       0.00000000       0.00000000 </v>
   <v name="genvec1">      0.25000000       0.00000000       0.00000000 </v>
   <v name="genvec2">      0.00000000       0.33333333      -0.00000000 </v>
   <v name="genvec3">      0.00000000       0.00000000       1.00000000 </v>
   <v name="shift">      0.00000000       0.00000000       0.00000000 </v>
  </generation>
  <varray name="kpointlist" >
   <v>       0.00000000       0.00000000       0.00000000 </v>
   <v>       0.25000000       0.00000000       0.00000000 </v>
   <v>       0.50000000       0.00000000       0.00000000 </v>
   <v>      -0.00000000       0.33333333      -0.00000000 </v>
   <v>       0.25000000       0.33333333       0.00000000 </v>
   <v>       0.50000000       0.33333333       0.00000000 </v>
   <v>      -0.25000000       0.33333333       0.00000000 </v>
  </varray>
  <varray name="weights" >
   <v>       0.08333333 </v>
   <v>       0.16666667 </v>
   <v>       0.08333333 </v>
   <v>       0.16666667 </v>
   <v>       0.16666667 </v>
   <v>       0.16666667 </v>
   <v>       0.16666667 </v>
  </varray>
 </kpoints>
 <parameters>
  <separator name="general" >
   <i type="string" name="SYSTEM">unknown system</i>
   <i type="logical" name="LCOMPAT"> F  </i>
  </separator>
  <separator name="electronic" >
   <i type="string" name="PREC">normal</i>
   <i name="ENMAX">    400.00000000</i>
   <i name="ENAUG">    605.39200000</i>
   <i name="EDIFF">      0.00000001</i>
   <i type="int" name="IALGO">    68</i>
   <i type="int" name="IWAVPR">    10</i>
   <i type="int" name="NBANDS">    48</i>
   <i type="int" name="NBANDSLOW">    -1</i>
   <i type="int" name="NBANDSHIGH">    -1</i>
   <i name="NELECT">     64.00000000</i>
   <i type="int" name="TURBO">     0</i>
   <i type="int" name="IRESTART">     0</i>
   <i type="int" name="NREBOOT">     0</i>
   <i type="int" name="NMIN">     0</i>
   <i name="EREF">      0.00000000</i>
   <separator name="electronic smearing" >
    <i type="int" name="ISMEAR">     0</i>
    <i name="SIGMA">      0.10000000</i>
    <i name="KSPACING">      0.50000000</i>
    <i type="logical" name="KGAMMA"> T  </i>
    <i type="logical" name="KBLOWUP"> F  </i>
   </separator>
   <separator name="electronic projectors" >
    <i type="logical" name="LREAL"> T  </i>
    <v name="ROPT">     -0.00050000     -0.00050000     -0.00050000</v>
    <i type="int" name="LMAXPAW">  -100</i>
    <i type="int" name="LMAXMIX">     6</i>
    <i type="logical" name="NLSPLINE"> F  </i>
   </separator>
   <separator name="electronic startup" >
    <i type="int" name="ISTART">     0</i>
    <i type="int" name="ICHARG">     2</i>
    <i type="int" name="INIWAV">     1</i>
   </separator>
   <separator name="electronic spin" >
    <i type="int" name="ISPIN">     1</i>
    <i type="logical" name="LNONCOLLINEAR"> F  </i>
    <v name="MAGMOM">      1.00000000      1.00000000      1.00000000      1.00000000      1.00000000      1.00000000      1.00000000      1.00000000      1.00000000      1.00000000      1.00000000      1.00000000      1.00000000      1.00000000      1.00000000      1.00000000      1.00000000      1.00000000      1.00000000      1.00000000
</v>
    <i name="NUPDOWN">     -1.00000000</i>
    <i type="logical" name="LSORBIT"> F  </i>
    <v name="SAXIS">      0.00000000      0.00000000      1.00000000</v>
    <i type="logical" name="LSPIRAL"> F  </i>
    <v name="QSPIRAL">      0.00000000      0.00000000      0.00000000</v>
    <i type="logical" name="LZEROZ"> F  </i>
   </separator>
   <separator name="electronic exchange-correlation" >
    <i type="logical" name="LASPH"> T  </i>
    <i type="logical" name="LMETAGGA"> F  </i>
   </separator>
   <separator name="electronic convergence" >
    <i type="int" name="NELM">   150</i>
    <i type="int" name="NELMDL">    -5</i>
    <i type="int" name="NELMIN">     2</i>
    <i name="ENINI">    400.00000000</i>
    <separator name="electronic convergence detail" >
     <i type="logical" name="LDIAG"> T  </i>
     <i type="logical" name="LSUBROT"> F  </i>
     <i name="WEIMIN">      0.00000000</i>
     <i name="EBREAK">      0.00000000</i>
     <i name="DEPER">      0.30000000</i>
     <i type="int" name="NRMM">     4</i>
     <i name="TIME">      0.40000000</i>
    </separator>
   </separator>
   <separator name="electronic mixer" >
    <i name="AMIX">      0.40000000</i>
    <i name="BMIX">      1.00000000</i>
    <i name="AMIN">      0.01000000</i>
    <i name="AMIX_MAG">      1.60000000</i>
    <i name="BMIX_MAG">      1.00000000</i>
    <separator name="electronic mixer details" >
     <i type="int" name="IMIX">     4</i>
     <i type="logical" name="MIXFIRST"> F  </i>
     <i type="int" name="MAXMIX">   -45</i>
     <i name="WC">    100.00000000</i>
     <i type="int" name="INIMIX">     1</i>
     <i type="int" name="MIXPRE">     1</i>
     <i type="int" name="MREMOVE">     5</i>
    </separator>
   </separator>
   <separator name="electronic dipolcorrection" >
    <i type="logical" name="LDIPOL"> T  </i>
    <i type="logical" name="LMONO"> F  </i>
    <i type="int" name="IDIPOL">     3</i>
    <i name="EPSILON">      1.00000000</i>
    <v name="DIPOL">      0.19090000      0.25730000      0.52250000</v>
    <i name="EFIELD">      0.00000000</i>
   </separator>
  </separator>
  <separator name="grids" >
   <i type="int" name="NGX">    32</i>
   <i type="int" name="NGY">    32</i>
   <i type="int" name="NGZ">   180</i>
   <i type="int" name="NGXF">    64</i>
   <i type="int" name="NGYF">    64</i>
   <i type="int" name="NGZF">   360</i>
   <i type="logical" name="ADDGRID"> F  </i>
  </separator>
  <separator name="ionic" >
   <i type="int" name="NSW">     0</i>
   <i type="int" name="IBRION">    -1</i>
   <i type="int" name="MDALGO">     0</i>
   <i type="int" name="ISIF">     3</i>
   <i name="PSTRESS">      0.00000000</i>
   <i name="EDIFFG">     -0.01000000</i>
   <i type="int" name="NFREE">     0</i>
   <i name="POTIM">      0.50000000</i>
   <i name="SMASS">     -3.00000000</i>
   <i name="SCALEE">      1.00000000</i>
  </separator>
  <separator name="ionic md" >
   <i name="TEBEG">      0.00010000</i>
   <i name="TEEND">      0.00010000</i>
   <i type="int" name="NBLOCK">     1</i>
   <i type="int" name="KBLOCK">     1</i>
   <i type="int" name="NPACO">   256</i>
   <i name="APACO">     16.00000000</i>
  </separator>
  <separator name="symmetry" >
   <i type="int" name="ISYM">     2</i>
   <i name="SYMPREC">      0.00001000</i>
  </separator>
  <separator name="dos" >
   <i type="int" name="LORBIT">     0</i>
   <v name="RWIGS">     -1.00000000     -1.00000000     -1.00000000</v>
   <i type="int" name="NEDOS">   301</i>
   <i name="EMIN">     10.00000000</i>
   <i name="EMAX">    -10.00000000</i>
   <i name="EFERMI">      0.00000000</i>
  </separator>
  <separator name="writing" >
   <i type="int" name="NWRITE">     1</i>
   <i type="logical" name="LWAVE"> F  </i>
   <i type="logical" name="LDOWNSAMPLE"> F  </i>
   <i type="logical" name="LCHARG"> F  </i>
   <i type="logical" name="LPARD"> F  </i>
   <i type="logical" name="LVTOT"> F  </i>
   <i type="logical" name="LVHAR"> F  </i>
   <i type="logical" name="LELF"> F  </i>
   <i type="logical" name="LOPTICS"> F  </i>
   <v name="STM">      0.00000000      0.00000000      0.00000000      0.00000000      0.00000000      0.00000000      0.00000000</v>
  </separator>
  <separator name="performance" >
   <i type="int" name="NPAR">     8</i>
   <i type="int" name="NSIM">     4</i>
   <i type="int" name="NBLK">    -1</i>
   <i type="logical" name="LPLANE"> T  </i>
   <i type="logical" name="LSCALAPACK"> T  </i>
   <i type="logical" name="LSCAAWARE"> F  </i>
   <i type="logical" name="LSCALU"> F  </i>
   <i type="logical" name="LASYNC"> F  </i>
   <i type="logical" name="LORBITALREAL"> F  </i>
  </separator>
  <separator name="miscellaneous" >
   <i type="int" name="IDIOT">     3</i>
   <i type="int" name="PHON_NSTRUCT">    -1</i>
   <i type="logical" name="LMUSIC"> F  </i>
   <v name="POMASS">     22.99000000     16.00000000     35.45300000</v>
   <v name="DARWINR">      0.00000000      0.00000000      0.00000000</v>
   <v name="DARWINV">      1.00000000      1.00000000      1.00000000</v>
   <i type="logical" name="LCORR"> T  </i>
  </separator>
  <i type="logical" name="GGA_COMPAT"> T  </i>
  <i type="logical" name="LBERRY"> F  </i>
  <i type="int" name="ICORELEVEL">     0</i>
  <i type="logical" name="LDAU"> F  </i>
  <i type="int" name="I_CONSTRAINED_M">     0</i>
  <separator name="electronic exchange-correlation" >
   <i type="string" name="GGA">PE</i>
   <i type="int" name="VOSKOWN">     0</i>
   <i type="logical" name="LHFCALC"> F  </i>
   <i type="string" name="PRECFOCK"></i>
   <i type="logical" name="LSYMGRAD"> F  </i>
   <i type="logical" name="LHFONE"> F  </i>
   <i type="logical" name="LRHFCALC"> F  </i>
   <i type="logical" name="LTHOMAS"> F  </i>
   <i type="logical" name="LMODELHF"> F  </i>
   <i type="logical" name="LFOCKACE"> F  </i>
   <i name="ENCUT4O">     -1.00000000</i>
   <i type="int" name="EXXOEP">     0</i>
   <i type="int" name="FOURORBIT">     0</i>
   <i name="AEXX">      0.00000000</i>
   <i name="HFALPHA">      0.00000000</i>
   <i name="MCALPHA">      0.00000000</i>
   <i name="ALDAX">      1.00000000</i>
   <i name="AGGAX">      1.00000000</i>
   <i name="ALDAC">      1.00000000</i>
   <i name="AGGAC">      1.00000000</i>
   <i type="int" name="NKREDX">     1</i>
   <i type="int" name="NKREDY">     1</i>
   <i type="int" name="NKREDZ">     1</i>
   <i type="logical" name="SHIFTRED"> F  </i>
   <i type="logical" name="ODDONLY"> F  </i>
   <i type="logical" name="EVENONLY"> F  </i>
   <i type="int" name="LMAXFOCK">     0</i>
   <i type="int" name="NMAXFOCKAE">     0</i>
   <i type="logical" name="LFOCKAEDFT"> F  </i>
   <i name="HFSCREEN">      0.00000000</i>
   <i name="HFSCREENC">      0.00000000</i>
   <i type="int" name="NBANDSGWLOW">     0</i>
  </separator>
  <separator name="vdW DFT" >
   <i type="logical" name="LUSE_VDW"> F  </i>
   <i name="Zab_VDW">     -0.84910000</i>
   <i name="PARAM1">      0.12340000</i>
   <i name="PARAM2">      1.00000000</i>
   <i name="PARAM3">      0.00000000</i>
  </separator>
  <separator name="model GW" >
   <i type="int" name="MODEL_GW">     0</i>
   <i name="MODEL_EPS0">     21.68741702</i>
   <i name="MODEL_ALPHA">      1.00000000</i>
  </separator>
  <separator name="linear response parameters" >
   <i type="logical" name="LEPSILON"> F  </i>
   <i type="logical" name="LRPA"> F  </i>
   <i type="logical" name="LNABLA"> F  </i>
   <i type="logical" name="LVEL"> F  </i>
   <i type="int" name="KINTER">     0</i>
   <i name="CSHIFT">      0.10000000</i>
   <i name="OMEGAMAX">     -1.00000000</i>
   <i name="DEG_THRESHOLD">      0.00200000</i>
   <i name="RTIME">     -0.10000000</i>
   <i name="WPLASMAI">      0.00000000</i>
   <v name="DFIELD">      0.00000000      0.00000000      0.00000000</v>
   <v name="WPLASMA">      0.00000000      0.00000000      0.00000000      0.00000000      0.00000000      0.00000000      0.00000000      0.00000000      0.00000000</v>
  </separator>
  <separator name="orbital magnetization" >
   <i type="logical" name="NUCIND"> F  </i>
   <v name="MAGPOS">      0.00000000      0.00000000      0.00000000</v>
   <i type="logical" name="LNICSALL"> T  </i>
   <i type="logical" name="ORBITALMAG"> F  </i>
   <i type="logical" name="LMAGBLOCH"> F  </i>
   <i type="logical" name="LCHIMAG"> F  </i>
   <i type="logical" name="LGAUGE"> T  </i>
   <i type="int" name="MAGATOM">     0</i>
   <v name="MAGDIPOL">      0.00000000      0.00000000      0.00000000</v>
   <v name="AVECCONST">      0.00000000      0.00000000      0.00000000</v>
  </separator>
  <separator name="response functions" >
   <i type="logical" name="LFINITE_TEMPERATURE"> F  </i>
   <i type="logical" name="LADDER"> F  </i>
   <i type="logical" name="LRPAFORCE"> F  </i>
   <i type="logical" name="LFXC"> F  </i>
   <i type="logical" name="LHARTREE"> T  </i>
   <i type="int" name="IBSE">     0</i>
   <v type="int" name="KPOINT">    -1     0     0     0</v>
   <i type="logical" name="LTCTC"> F  </i>
   <i type="logical" name="LTCTE"> F  </i>
   <i type="logical" name="LTETE"> F  </i>
   <i type="logical" name="LTRIPLET"> F  </i>
   <i type="logical" name="LFXCEPS"> F  </i>
   <i type="logical" name="LFXHEG"> F  </i>
   <i type="int" name="NATURALO">     2</i>
   <i type="logical" name="LHOLEGF"> F  </i>
   <i type="logical" name="L2ORDER"> F  </i>
   <i type="logical" name="LDMP1"> F  </i>
   <i type="logical" name="LMP2LT"> F  </i>
   <i type="logical" name="LSMP2LT"> F  </i>
   <i type="logical" name="LGWLF"> F  </i>
   <i name="ENCUTGW">     -2.00000000</i>
   <i name="ENCUTGWSOFT">     -2.00000000</i>
   <i name="ENCUTLF">     -1.00000000</i>
   <i type="logical" name="LESF_SPLINES"> F  </i>
   <i type="int" name="LMAXMP2">    -1</i>
   <i name="SCISSOR">      0.00000000</i>
   <i type="int" name="NOMEGA">     0</i>
   <i type="int" name="NOMEGAR">     0</i>
   <i type="int" name="NBANDSGW">    -1</i>
   <i type="int" name="NBANDSO">    -1</i>
   <i type="int" name="NBANDSV">    -1</i>
   <i type="int" name="NELM">   150</i>
   <i type="int" name="NELMHF">     1</i>
   <i type="int" name="DIM">     3</i>
   <i type="int" name="IESPILON">     4</i>
   <i type="int" name="ANTIRES">     0</i>
   <i name="OMEGAMAX">    -30.00000000</i>
   <i name="OMEGAMIN">    -30.00000000</i>
   <i name="OMEGATL">   -200.00000000</i>
   <i type="int" name="OMEGAGRID">     0</i>
   <i name="CSHIFT">     -0.10000000</i>
   <i type="logical" name="LSELFENERGY"> F  </i>
   <i type="logical" name="LSPECTRAL"> F  </i>
   <i type="logical" name="LSPECTRALGW"> F  </i>
   <i type="logical" name="LSINGLES"> F  </i>
   <i type="logical" name="LFERMIGW"> F  </i>
   <i type="logical" name="ODDONLYGW"> F  </i>
   <i type="logical" name="EVENONLYGW"> F  </i>
   <i type="int" name="NKREDLFX">     1</i>
   <i type="int" name="NKREDLFY">     1</i>
   <i type="int" name="NKREDLFZ">     1</i>
   <i type="int" name="MAXMEM">  2800</i>
   <i type="int" name="TELESCOPE">     0</i>
   <i type="int" name="NTAUPAR">    -1</i>
   <i type="int" name="NOMEGAPAR">    -1</i>
   <i name="DAMP_NEWTON">      0.80000001</i>
   <i name="LAMBDA">      1.00000000</i>
  </separator>
  <separator name="External order field" >
   <i name="OFIELD_KAPPA">      0.00000000</i>
   <v name="OFIELD_K">      0.00000000      0.00000000      0.00000000</v>
   <i name="OFIELD_Q6_NEAR">      0.00000000</i>
   <i name="OFIELD_Q6_FAR">      0.00000000</i>
   <i name="OFIELD_A">      0.00000000</i>
  </separator>
 </parameters>
 <atominfo>
  <atoms>      20 </atoms>
  <types>       3 </types>
  <array name="atoms" >
   <dimension dim="1">ion</dimension>
   <field type="string">element</field>
   <field type="int">atomtype</field>
   <set>
    <rc><c>Na</c><c>   1</c></rc>
    <rc><c>Na</c><c>   1</c></rc>
    <rc><c>Na</c><c>   1</c></rc>
    <rc><c>Na</c><c>   1</c></rc>
    <rc><c>Na</c><c>   1</c></rc>
    <rc><c>Na</c><c>   1</c></rc>
    <rc><c>Na</c><c>   1</c></rc>
    <rc><c>Na</c><c>   1</c></rc>
    <rc><c>Na</c><c>   1</c></rc>
    <rc><c>Na</c><c>   1</c></rc>
    <rc><c>Na</c><c>   1</c></rc>
    <rc><c>Na</c><c>   1</c></rc>
    <rc><c>O </c><c>   2</c></rc>
    <rc><c>O </c><c>   2</c></rc>
    <rc><c>O </c><c>   2</c></rc>
    <rc><c>O </c><c>   2</c></rc>
    <rc><c>Cl</c><c>   3</c></rc>
    <rc><c>Cl</c><c>   3</c></rc>
    <rc><c>Cl</c><c>   3</c></rc>
    <rc><c>Cl</c><c>   3</c></rc>
   </set>
  </array>
  <array name="atomtypes" >
   <dimension dim="1">type</dimension>
   <field type="int">atomspertype</field>
   <field type="string">element</field>
   <field>mass</field>
   <field>valence</field>
   <field type="string">pseudopotential</field>
   <set>
    <rc><c>  12</c><c>Na</c><c>     22.99000000</c><c>      1.00000000</c><c>  PAW_PBE Na 08Apr2002                  </c></rc>
    <rc><c>   4</c><c>O </c><c>     16.00000000</c><c>      6.00000000</c><c>  PAW_PBE O 08Apr2002                   </c></rc>
    <rc><c>   4</c><c>Cl</c><c>     35.45300000</c><c>      7.00000000</c><c>  PAW_PBE Cl 06Sep2000                  </c></rc>
   </set>
  </array>
 </atominfo>
 <structure name="initialpos" >
  <crystal>
   <varray name="basis" >
    <v>       6.08889219       1.63151375       0.00000000 </v>
    <v>      -4.45737844       4.45737844       0.00000000 </v>
    <v>     -21.00714007     -21.00714007      21.00714007 </v>
   </varray>
   <i name="volume">    722.91390052 </i>
   <varray name="rec_basis" >
    <v>       0.12952687       0.12952687       0.25905374 </v>
    <v>      -0.04741012       0.17693699       0.12952687 </v>
    <v>       0.00000000       0.00000000       0.04760286 </v>
   </varray>
  </crystal>
  <varray name="positions" >
   <v>       0.00000035       0.50000017       0.34686940 </v>
   <v>       0.00000035       0.50000017       0.46937388 </v>
   <v>       0.00000035       0.50000017       0.59187835 </v>
   <v>       0.00000035       0.50000017       0.71438283 </v>
   <v>       0.50000027       0.50000017       0.34686940 </v>
   <v>       0.50000027       0.00000010       0.34686940 </v>
   <v>       0.50000027       0.50000017       0.46937388 </v>
   <v>       0.50000027       0.00000010       0.46937388 </v>
   <v>       0.50000027       0.50000017       0.59187835 </v>
   <v>       0.50000027       0.00000010       0.59187835 </v>
   <v>       0.50000027       0.50000017       0.71438283 </v>
   <v>       0.50000027       0.00000010       0.71438283 </v>
   <v>       0.00000035       0.50000017       0.28561717 </v>
   <v>       0.00000035       0.50000017       0.40812165 </v>
   <v>       0.00000035       0.50000017       0.53062612 </v>
   <v>       0.00000035       0.50000017       0.65313060 </v>
   <v>       0.00000020       0.00000010       0.34686938 </v>
   <v>       0.00000020       0.00000010       0.46937386 </v>
   <v>       0.00000020       0.00000010       0.59187833 </v>
   <v>       0.00000020       0.00000010       0.71438281 </v>
  </varray>
 </structure>
 <calculation>
  <scstep>
   <time name="dav">    0.33    0.35</time>
   <time name="total">    0.39    0.42</time>
   <dipole>
    <v name="dipole">      0.00114685       0.00114685      -0.00114685 </v>
    <i name="Tr[quadrupol]">   -287.25868876 </i>
    <i name="Echarged">      0.00000000 </i>
    <i name="Edipol_quadrupol">      0.00000000 </i>
    <i name="Eion">      0.00000000 </i>
   </dipole>
   <energy>
    <i name="alphaZ">     -0.58971364 </i>
    <i name="ewald">   2793.72358906 </i>
    <i name="hartreedc">  -5825.62795371 </i>
    <i name="XCdc">   -249.54056636 </i>
    <i name="pawpsdc">   3165.81388983 </i>
    <i name="pawaedc">  -2723.36158796 </i>
    <i name="eentropy">     -0.02187969 </i>
    <i name="bandstr">    -89.65547833 </i>
    <i name="atom">   3429.81723989 </i>
    <i name="e_fr_energy">    500.55753909 </i>
    <i name="e_wo_entrp">    500.57941878 </i>
    <i name="e_0_energy">    500.56847894 </i>
   </energy>
  </scstep>
  <scstep>
   <time name="dav">    0.40    0.46</time>
   <time name="total">    0.40    0.47</time>
   <dipole>
    <v name="dipole">      0.00114685       0.00114685      -0.00114685 </v>
    <i name="Tr[quadrupol]">   -287.25868876 </i>
    <i name="Echarged">      0.00000000 </i>
    <i name="Edipol_quadrupol">      0.00000000 </i>
    <i name="Eion">      0.00000000 </i>
   </dipole>
   <energy>
    <i name="e_fr_energy">     35.43699969 </i>
    <i name="e_wo_entrp">     35.43699969 </i>
    <i name="e_0_energy">     35.43699969 </i>
   </energy>
  </scstep>
  <scstep>
   <time name="dav">    0.31    0.33</time>
   <time name="total">    0.31    0.33</time>
   <dipole>
    <v name="dipole">      0.00114685       0.00114685      -0.00114685 </v>
    <i name="Tr[quadrupol]">   -287.25868876 </i>
    <i name="Echarged">      0.00000000 </i>
    <i name="Edipol_quadrupol">      0.00000000 </i>
    <i name="Eion">      0.00000000 </i>
   </dipole>
   <energy>
    <i name="e_fr_energy">    -85.88721503 </i>
    <i name="e_wo_entrp">    -85.88721503 </i>
    <i name="e_0_energy">    -85.88721503 </i>
   </energy>
  </scstep>
  <scstep>
   <time name="dav">    0.30    0.30</time>
   <time name="total">    0.30    0.30</time>
   <dipole>
    <v name="dipole">      0.00114685       0.00114685      -0.00114685 </v>
    <i name="Tr[quadrupol]">   -287.25868876 </i>
    <i name="Echarged">      0.00000000 </i>
    <i name="Edipol_quadrupol">      0.00000000 </i>
    <i name="Eion">      0.00000000 </i>
   </dipole>
   <energy>
    <i name="e_fr_energy">    -90.44046640 </i>
    <i name="e_wo_entrp">    -90.44046640 </i>
    <i name="e_0_energy">    -90.44046640 </i>
   </energy>
  </scstep>
  <scstep>
   <time name="dav">    0.30    0.32</time>
   <time name="total">    0.34    0.35</time>
   <dipole>
    <v name="dipole">      0.00114685       0.00114685      -0.00114685 </v>
    <i name="Tr[quadrupol]">   -287.25868876 </i>
    <i name="Echarged">      0.00000000 </i>
    <i name="Edipol_quadrupol">      0.00000000 </i>
    <i name="Eion">      0.00000000 </i>
   </dipole>
   <energy>
    <i name="e_fr_energy">    -90.57215020 </i>
    <i name="e_wo_entrp">    -90.57215020 </i>
    <i name="e_0_energy">    -90.57215020 </i>
   </energy>
  </scstep>
  <scstep>
   <time name="diag">    0.08    0.08</time>
   <time name="diis">    0.09    0.09</time>
   <time name="orth">    0.01    0.01</time>
   <time name="total">    0.27    0.28</time>
   <dipole>
    <v name="dipole">      0.04787089       0.04787089      -0.04787089 </v>
    <i name="Tr[quadrupol]">   -287.67005073 </i>
    <i name="Echarged">      0.00000000 </i>
    <i name="Edipol_quadrupol">      0.00000000 </i>
    <i name="Eion">      0.00000000 </i>
   </dipole>
   <energy>
    <i name="e_fr_energy">    -69.64992189 </i>
    <i name="e_wo_entrp">    -69.56058728 </i>
    <i name="e_0_energy">    -69.60525458 </i>
   </energy>
  </scstep>
  <scstep>
   <time name="diag">    0.09    0.10</time>
   <time name="diis">    0.13    0.15</time>
   <time name="orth">    0.01    0.01</time>
   <time name="total">    0.31    0.35</time>
   <dipole>
    <v name="dipole">      0.06477141       0.06477141      -0.06477141 </v>
    <i name="Tr[quadrupol]">   -288.05292718 </i>
    <i name="Echarged">      0.00000000 </i>
    <i name="Edipol_quadrupol">      0.00000000 </i>
    <i name="Eion">      0.00000000 </i>
   </dipole>
   <energy>
    <i name="e_fr_energy">    -70.25767412 </i>
    <i name="e_wo_entrp">    -70.25767412 </i>
    <i name="e_0_energy">    -70.25767412 </i>
   </energy>
  </scstep>
  <scstep>
   <time name="diag">    0.07    0.08</time>
   <time name="diis">    0.13    0.19</time>
   <time name="orth">    0.11    0.16</time>
   <time name="total">    0.41    0.55</time>
   <dipole>
    <v name="dipole">      0.10465998       0.10465998      -0.10465998 </v>
    <i name="Tr[quadrupol]">   -288.41159314 </i>
    <i name="Echarged">      0.00000000 </i>
    <i name="Edipol_quadrupol">      0.00000000 </i>
    <i name="Eion">      0.00000000 </i>
   </dipole>
   <energy>
    <i name="e_fr_energy">    -68.49726222 </i>
    <i name="e_wo_entrp">    -68.47140858 </i>
    <i name="e_0_energy">    -68.48433540 </i>
   </energy>
  </scstep>
  <scstep>
   <time name="diag">    0.07    0.07</time>
   <time name="diis">    0.10    0.10</time>
   <time name="orth">    0.01    0.01</time>
   <time name="total">    0.26    0.27</time>
   <dipole>
    <v name="dipole">      0.27230571       0.27230571      -0.27230571 </v>
    <i name="Tr[quadrupol]">   -289.89047744 </i>
    <i name="Echarged">      0.00000000 </i>
    <i name="Edipol_quadrupol">      0.00000000 </i>
    <i name="Eion">      0.00000000 </i>
   </dipole>
   <energy>
    <i name="e_fr_energy">    -77.07681391 </i>
    <i name="e_wo_entrp">    -77.06577681 </i>
    <i name="e_0_energy">    -77.07129536 </i>
   </energy>
  </scstep>
  <scstep>
   <time name="diag">    0.07    0.07</time>
   <time name="diis">    0.10    0.10</time>
   <time name="orth">    0.01    0.01</time>
   <time name="total">    0.26    0.26</time>
   <dipole>
    <v name="dipole">      0.23806475       0.23806475      -0.23806475 </v>
    <i name="Tr[quadrupol]">   -289.81389490 </i>
    <i name="Echarged">      0.00000000 </i>
    <i name="Edipol_quadrupol">      0.00000000 </i>
    <i name="Eion">      0.00000000 </i>
   </dipole>
   <energy>
    <i name="e_fr_energy">    -69.20263953 </i>
    <i name="e_wo_entrp">    -69.06719007 </i>
    <i name="e_0_energy">    -69.13491480 </i>
   </energy>
  </scstep>
  <scstep>
   <time name="diag">    0.07    0.07</time>
   <time name="diis">    0.09    0.09</time>
   <time name="orth">    0.01    0.01</time>
   <time name="total">    0.26    0.26</time>
   <dipole>
    <v name="dipole">      0.24887316       0.24887316      -0.24887316 </v>
    <i name="Tr[quadrupol]">   -290.01423548 </i>
    <i name="Echarged">      0.00000000 </i>
    <i name="Edipol_quadrupol">      0.00000000 </i>
    <i name="Eion">      0.00000000 </i>
   </dipole>
   <energy>
    <i name="e_fr_energy">    -68.38543881 </i>
    <i name="e_wo_entrp">    -68.24143305 </i>
    <i name="e_0_energy">    -68.31343593 </i>
   </energy>
  </scstep>
  <scstep>
   <time name="diag">    0.08    0.08</time>
   <time name="diis">    0.10    0.10</time>
   <time name="orth">    0.01    0.01</time>
   <time name="total">    0.27    0.27</time>
   <dipole>
    <v name="dipole">      0.25866078       0.25866078      -0.25866078 </v>
    <i name="Tr[quadrupol]">   -290.19779052 </i>
    <i name="Echarged">      0.00000000 </i>
    <i name="Edipol_quadrupol">      0.00000000 </i>
    <i name="Eion">      0.00000000 </i>
   </dipole>
   <energy>
    <i name="e_fr_energy">    -68.08967216 </i>
    <i name="e_wo_entrp">    -67.94491892 </i>
    <i name="e_0_energy">    -68.01729554 </i>
   </energy>
  </scstep>
  <scstep>
   <time name="diag">    0.07    0.07</time>
   <time name="diis">    0.10    0.10</time>
   <time name="orth">    0.01    0.01</time>
   <time name="total">    0.26    0.26</time>
   <dipole>
    <v name="dipole">      0.32703494       0.32703494      -0.32703494 </v>
    <i name="Tr[quadrupol]">   -291.29129182 </i>
    <i name="Echarged">      0.00000000 </i>
    <i name="Edipol_quadrupol">      0.00000000 </i>
    <i name="Eion">      0.00000000 </i>
   </dipole>
   <energy>
    <i name="e_fr_energy">    -68.59771140 </i>
    <i name="e_wo_entrp">    -68.45504246 </i>
    <i name="e_0_energy">    -68.52637693 </i>
   </energy>
  </scstep>
  <scstep>
   <time name="diag">    0.07    0.07</time>
   <time name="diis">    0.10    0.10</time>
   <time name="orth">    0.01    0.01</time>
   <time name="total">    0.26    0.27</time>
   <dipole>
    <v name="dipole">      0.42881766       0.42881766      -0.42881766 </v>
    <i name="Tr[quadrupol]">   -293.34422338 </i>
    <i name="Echarged">      0.00000000 </i>
    <i name="Edipol_quadrupol">      0.00000000 </i>
    <i name="Eion">      0.00000000 </i>
   </dipole>
   <energy>
    <i name="e_fr_energy">    -68.04380470 </i>
    <i name="e_wo_entrp">    -67.89732752 </i>
    <i name="e_0_energy">    -67.97056611 </i>
   </energy>
  </scstep>
  <scstep>
   <time name="diag">    0.07    0.07</time>
   <time name="diis">    0.10    0.10</time>
   <time name="orth">    0.01    0.01</time>
   <time name="total">    0.26    0.26</time>
   <dipole>
    <v name="dipole">      0.43032774       0.43032774      -0.43032774 </v>
    <i name="Tr[quadrupol]">   -293.61684966 </i>
    <i name="Echarged">      0.00000000 </i>
    <i name="Edipol_quadrupol">      0.00000000 </i>
    <i name="Eion">      0.00000000 </i>
   </dipole>
   <energy>
    <i name="e_fr_energy">    -67.82007399 </i>
    <i name="e_wo_entrp">    -67.66709015 </i>
    <i name="e_0_energy">    -67.74358207 </i>
   </energy>
  </scstep>
  <scstep>
   <time name="diag">    0.14    0.19</time>
   <time name="diis">    0.11    0.11</time>
   <time name="orth">    0.01    0.01</time>
   <time name="total">    0.34    0.39</time>
   <dipole>
    <v name="dipole">      0.41839282       0.41839282      -0.41839282 </v>
    <i name="Tr[quadrupol]">   -293.75736030 </i>
    <i name="Echarged">      0.00000000 </i>
    <i name="Edipol_quadrupol">      0.00000000 </i>
    <i name="Eion">      0.00000000 </i>
   </dipole>
   <energy>
    <i name="e_fr_energy">    -67.67015190 </i>
    <i name="e_wo_entrp">    -67.55005948 </i>
    <i name="e_0_energy">    -67.61010569 </i>
   </energy>
  </scstep>
  <scstep>
   <time name="diag">    0.07    0.07</time>
   <time name="diis">    0.11    0.12</time>
   <time name="orth">    0.01    0.01</time>
   <time name="total">    0.28    0.30</time>
   <dipole>
    <v name="dipole">      0.42251207       0.42251207      -0.42251207 </v>
    <i name="Tr[quadrupol]">   -293.64389942 </i>
    <i name="Echarged">      0.00000000 </i>
    <i name="Edipol_quadrupol">      0.00000000 </i>
    <i name="Eion">      0.00000000 </i>
   </dipole>
   <energy>
    <i name="e_fr_energy">    -67.92516963 </i>
    <i name="e_wo_entrp">    -67.77658624 </i>
    <i name="e_0_energy">    -67.85087794 </i>
   </energy>
  </scstep>
  <scstep>
   <time name="diag">    0.08    0.08</time>
   <time name="diis">    0.11    0.12</time>
   <time name="orth">    0.01    0.01</time>
   <time name="total">    0.30    0.34</time>
   <dipole>
    <v name="dipole">      0.41834676       0.41834676      -0.41834676 </v>
    <i name="Tr[quadrupol]">   -294.04438419 </i>
    <i name="Echarged">      0.00000000 </i>
    <i name="Edipol_quadrupol">      0.00000000 </i>
    <i name="Eion">      0.00000000 </i>
   </dipole>
   <energy>
    <i name="e_fr_energy">    -67.85261724 </i>
    <i name="e_wo_entrp">    -67.70141284 </i>
    <i name="e_0_energy">    -67.77701504 </i>
   </energy>
  </scstep>
  <scstep>
   <time name="diag">    0.09    0.09</time>
   <time name="diis">    0.10    0.10</time>
   <time name="orth">    0.01    0.01</time>
   <time name="total">    0.27    0.29</time>
   <dipole>
    <v name="dipole">      0.42825447       0.42825447      -0.42825447 </v>
    <i name="Tr[quadrupol]">   -295.71768790 </i>
    <i name="Echarged">      0.00000000 </i>
    <i name="Edipol_quadrupol">      0.00000000 </i>
    <i name="Eion">      0.00000000 </i>
   </dipole>
   <energy>
    <i name="e_fr_energy">    -67.59440765 </i>
    <i name="e_wo_entrp">    -67.47723945 </i>
    <i name="e_0_energy">    -67.53582355 </i>
   </energy>
  </scstep>
  <scstep>
   <time name="diag">    0.11    0.11</time>
   <time name="diis">    0.10    0.10</time>
   <time name="orth">    0.01    0.01</time>
   <time name="total">    0.30    0.30</time>
   <dipole>
    <v name="dipole">      0.43653685       0.43653685      -0.43653685 </v>
    <i name="Tr[quadrupol]">   -296.81924534 </i>
    <i name="Echarged">      0.00000000 </i>
    <i name="Edipol_quadrupol">      0.00000000 </i>
    <i name="Eion">      0.00000000 </i>
   </dipole>
   <energy>
    <i name="e_fr_energy">    -67.56489533 </i>
    <i name="e_wo_entrp">    -67.44872350 </i>
    <i name="e_0_energy">    -67.50680941 </i>
   </energy>
  </scstep>
  <scstep>
   <time name="diag">    0.07    0.07</time>
   <time name="diis">    0.10    0.10</time>
   <time name="orth">    0.01    0.01</time>
   <time name="total">    0.26    0.26</time>
   <dipole>
    <v name="dipole">      0.41211251       0.41211251      -0.41211251 </v>
    <i name="Tr[quadrupol]">   -297.21129641 </i>
    <i name="Echarged">      0.00000000 </i>
    <i name="Edipol_quadrupol">      0.00000000 </i>
    <i name="Eion">      0.00000000 </i>
   </dipole>
   <energy>
    <i name="e_fr_energy">    -67.55719078 </i>
    <i name="e_wo_entrp">    -67.46290179 </i>
    <i name="e_0_energy">    -67.51004628 </i>
   </energy>
  </scstep>
  <scstep>
   <time name="diag">    0.07    0.07</time>
   <time name="diis">    0.10    0.10</time>
   <time name="orth">    0.01    0.01</time>
   <time name="total">    0.27    0.27</time>
   <dipole>
    <v name="dipole">      0.41470281       0.41470281      -0.41470281 </v>
    <i name="Tr[quadrupol]">   -297.26759998 </i>
    <i name="Echarged">      0.00000000 </i>
    <i name="Edipol_quadrupol">      0.00000000 </i>
    <i name="Eion">      0.00000000 </i>
   </dipole>
   <energy>
    <i name="e_fr_energy">    -67.54717228 </i>
    <i name="e_wo_entrp">    -67.44032506 </i>
    <i name="e_0_energy">    -67.49374867 </i>
   </energy>
  </scstep>
  <scstep>
   <time name="diag">    0.24    0.34</time>
   <time name="diis">    0.10    0.10</time>
   <time name="orth">    0.01    0.01</time>
   <time name="total">    0.43    0.53</time>
   <dipole>
    <v name="dipole">      0.40688702       0.40688702      -0.40688702 </v>
    <i name="Tr[quadrupol]">   -297.92854853 </i>
    <i name="Echarged">      0.00000000 </i>
    <i name="Edipol_quadrupol">      0.00000000 </i>
    <i name="Eion">      0.00000000 </i>
   </dipole>
   <energy>
    <i name="e_fr_energy">    -67.53771411 </i>
    <i name="e_wo_entrp">    -67.44093886 </i>
    <i name="e_0_energy">    -67.48932649 </i>
   </energy>
  </scstep>
  <scstep>
   <time name="diag">    0.07    0.07</time>
   <time name="diis">    0.10    0.10</time>
   <time name="orth">    0.01    0.01</time>
   <time name="total">    0.27    0.27</time>
   <dipole>
    <v name="dipole">      0.40306298       0.40306298      -0.40306298 </v>
    <i name="Tr[quadrupol]">   -298.13740995 </i>
    <i name="Echarged">      0.00000000 </i>
    <i name="Edipol_quadrupol">      0.00000000 </i>
    <i name="Eion">      0.00000000 </i>
   </dipole>
   <energy>
    <i name="e_fr_energy">    -67.52303313 </i>
    <i name="e_wo_entrp">    -67.41871507 </i>
    <i name="e_0_energy">    -67.47087410 </i>
   </energy>
  </scstep>
  <scstep>
   <time name="diag">    0.08    0.08</time>
   <time name="diis">    0.10    0.10</time>
   <time name="orth">    0.01    0.01</time>
   <time name="total">    0.27    0.27</time>
   <dipole>
    <v name="dipole">      0.40218307       0.40218307      -0.40218307 </v>
    <i name="Tr[quadrupol]">   -298.09846021 </i>
    <i name="Echarged">      0.00000000 </i>
    <i name="Edipol_quadrupol">      0.00000000 </i>
    <i name="Eion">      0.00000000 </i>
   </dipole>
   <energy>
    <i name="e_fr_energy">    -67.52235455 </i>
    <i name="e_wo_entrp">    -67.41818135 </i>
    <i name="e_0_energy">    -67.47026795 </i>
   </energy>
  </scstep>
  <scstep>
   <time name="diag">    0.07    0.07</time>
   <time name="diis">    0.13    0.13</time>
   <time name="orth">    0.01    0.01</time>
   <time name="total">    0.30    0.30</time>
   <dipole>
    <v name="dipole">      0.38072859       0.38072859      -0.38072859 </v>
    <i name="Tr[quadrupol]">   -300.11658663 </i>
    <i name="Echarged">      0.00000000 </i>
    <i name="Edipol_quadrupol">      0.00000000 </i>
    <i name="Eion">      0.00000000 </i>
   </dipole>
   <energy>
    <i name="e_fr_energy">    -67.51836346 </i>
    <i name="e_wo_entrp">    -67.42919770 </i>
    <i name="e_0_energy">    -67.47378058 </i>
   </energy>
  </scstep>
  <scstep>
   <time name="diag">    0.07    0.07</time>
   <time name="diis">    0.13    0.13</time>
   <time name="orth">    0.01    0.01</time>
   <time name="total">    0.29    0.29</time>
   <dipole>
    <v name="dipole">      0.34249164       0.34249164      -0.34249164 </v>
    <i name="Tr[quadrupol]">   -302.09879376 </i>
    <i name="Echarged">      0.00000000 </i>
    <i name="Edipol_quadrupol">      0.00000000 </i>
    <i name="Eion">      0.00000000 </i>
   </dipole>
   <energy>
    <i name="e_fr_energy">    -67.54514599 </i>
    <i name="e_wo_entrp">    -67.48495048 </i>
    <i name="e_0_energy">    -67.51504823 </i>
   </energy>
  </scstep>
  <scstep>
   <time name="diag">    0.07    0.07</time>
   <time name="diis">    0.12    0.12</time>
   <time name="orth">    0.01    0.01</time>
   <time name="total">    0.28    0.29</time>
   <dipole>
    <v name="dipole">      0.32701576       0.32701576      -0.32701576 </v>
    <i name="Tr[quadrupol]">   -304.00121795 </i>
    <i name="Echarged">      0.00000000 </i>
    <i name="Edipol_quadrupol">      0.00000000 </i>
    <i name="Eion">      0.00000000 </i>
   </dipole>
   <energy>
    <i name="e_fr_energy">    -67.51565286 </i>
    <i name="e_wo_entrp">    -67.44598303 </i>
    <i name="e_0_energy">    -67.48081794 </i>
   </energy>
  </scstep>
  <scstep>
   <time name="diag">    0.07    0.07</time>
   <time name="diis">    0.13    0.13</time>
   <time name="orth">    0.01    0.01</time>
   <time name="total">    0.29    0.29</time>
   <dipole>
    <v name="dipole">      0.32047131       0.32047131      -0.32047131 </v>
    <i name="Tr[quadrupol]">   -305.92444369 </i>
    <i name="Echarged">      0.00000000 </i>
    <i name="Edipol_quadrupol">      0.00000000 </i>
    <i name="Eion">      0.00000000 </i>
   </dipole>
   <energy>
    <i name="e_fr_energy">    -67.47976601 </i>
    <i name="e_wo_entrp">    -67.36999808 </i>
    <i name="e_0_energy">    -67.42488204 </i>
   </energy>
  </scstep>
  <scstep>
   <time name="diag">    0.13    0.19</time>
   <time name="diis">    0.11    0.11</time>
   <time name="orth">    0.01    0.01</time>
   <time name="total">    0.33    0.39</time>
   <dipole>
    <v name="dipole">      0.31490110       0.31490110      -0.31490110 </v>
    <i name="Tr[quadrupol]">   -307.13801649 </i>
    <i name="Echarged">      0.00000000 </i>
    <i name="Edipol_quadrupol">      0.00000000 </i>
    <i name="Eion">      0.00000000 </i>
   </dipole>
   <energy>
    <i name="e_fr_energy">    -67.48050317 </i>
    <i name="e_wo_entrp">    -67.37513867 </i>
    <i name="e_0_energy">    -67.42782092 </i>
   </energy>
  </scstep>
  <scstep>
   <time name="diag">    0.07    0.07</time>
   <time name="diis">    0.11    0.11</time>
   <time name="orth">    0.01    0.01</time>
   <time name="total">    0.27    0.27</time>
   <dipole>
    <v name="dipole">      0.31766793       0.31766793      -0.31766793 </v>
    <i name="Tr[quadrupol]">   -308.24248398 </i>
    <i name="Echarged">      0.00000000 </i>
    <i name="Edipol_quadrupol">      0.00000000 </i>
    <i name="Eion">      0.00000000 </i>
   </dipole>
   <energy>
    <i name="e_fr_energy">    -67.48697039 </i>
    <i name="e_wo_entrp">    -67.39684905 </i>
    <i name="e_0_energy">    -67.44190972 </i>
   </energy>
  </scstep>
  <scstep>
   <time name="diag">    0.07    0.07</time>
   <time name="diis">    0.10    0.10</time>
   <time name="orth">    0.01    0.01</time>
   <time name="total">    0.26    0.27</time>
   <dipole>
    <v name="dipole">      0.32695822       0.32695822      -0.32695822 </v>
    <i name="Tr[quadrupol]">   -309.04052789 </i>
    <i name="Echarged">      0.00000000 </i>
    <i name="Edipol_quadrupol">      0.00000000 </i>
    <i name="Eion">      0.00000000 </i>
   </dipole>
   <energy>
    <i name="e_fr_energy">    -67.47570352 </i>
    <i name="e_wo_entrp">    -67.36723975 </i>
    <i name="e_0_energy">    -67.42147163 </i>
   </energy>
  </scstep>
  <scstep>
   <time name="diag">    0.07    0.07</time>
   <time name="diis">    0.10    0.10</time>
   <time name="orth">    0.01    0.01</time>
   <time name="total">    0.27    0.27</time>
   <dipole>
    <v name="dipole">      0.32492717       0.32492717      -0.32492717 </v>
    <i name="Tr[quadrupol]">   -309.16599832 </i>
    <i name="Echarged">      0.00000000 </i>
    <i name="Edipol_quadrupol">      0.00000000 </i>
    <i name="Eion">      0.00000000 </i>
   </dipole>
   <energy>
    <i name="e_fr_energy">    -67.47910908 </i>
    <i name="e_wo_entrp">    -67.37880315 </i>
    <i name="e_0_energy">    -67.42895611 </i>
   </energy>
  </scstep>
  <scstep>
   <time name="diag">    0.07    0.07</time>
   <time name="diis">    0.14    0.16</time>
   <time name="orth">    0.01    0.01</time>
   <time name="total">    0.30    0.34</time>
   <dipole>
    <v name="dipole">      0.32882186       0.32882186      -0.32882186 </v>
    <i name="Tr[quadrupol]">   -309.87352141 </i>
    <i name="Echarged">      0.00000000 </i>
    <i name="Edipol_quadrupol">      0.00000000 </i>
    <i name="Eion">      0.00000000 </i>
   </dipole>
   <energy>
    <i name="e_fr_energy">    -67.47987576 </i>
    <i name="e_wo_entrp">    -67.37942481 </i>
    <i name="e_0_energy">    -67.42965029 </i>
   </energy>
  </scstep>
  <scstep>
   <time name="diag">    0.10    0.11</time>
   <time name="diis">    0.11    0.13</time>
   <time name="orth">    0.01    0.01</time>
   <time name="total">    0.32    0.36</time>
   <dipole>
    <v name="dipole">      0.33196854       0.33196854      -0.33196854 </v>
    <i name="Tr[quadrupol]">   -310.72297094 </i>
    <i name="Echarged">      0.00000000 </i>
    <i name="Edipol_quadrupol">      0.00000000 </i>
    <i name="Eion">      0.00000000 </i>
   </dipole>
   <energy>
    <i name="e_fr_energy">    -67.47803338 </i>
    <i name="e_wo_entrp">    -67.36642042 </i>
    <i name="e_0_energy">    -67.42222690 </i>
   </energy>
  </scstep>
  <scstep>
   <time name="diag">    0.07    0.07</time>
   <time name="diis">    0.09    0.10</time>
   <time name="orth">    0.01    0.01</time>
   <time name="total">    0.26    0.27</time>
   <dipole>
    <v name="dipole">      0.32856339       0.32856339      -0.32856339 </v>
    <i name="Tr[quadrupol]">   -310.80107353 </i>
    <i name="Echarged">      0.00000000 </i>
    <i name="Edipol_quadrupol">      0.00000000 </i>
    <i name="Eion">      0.00000000 </i>
   </dipole>
   <energy>
    <i name="e_fr_energy">    -67.47796158 </i>
    <i name="e_wo_entrp">    -67.37077470 </i>
    <i name="e_0_energy">    -67.42436814 </i>
   </energy>
  </scstep>
  <scstep>
   <time name="diag">    0.19    0.34</time>
   <time name="diis">    0.10    0.10</time>
   <time name="orth">    0.01    0.01</time>
   <time name="total">    0.39    0.54</time>
   <dipole>
    <v name="dipole">      0.32808370       0.32808370      -0.32808370 </v>
    <i name="Tr[quadrupol]">   -310.95354614 </i>
    <i name="Echarged">      0.00000000 </i>
    <i name="Edipol_quadrupol">      0.00000000 </i>
    <i name="Eion">      0.00000000 </i>
   </dipole>
   <energy>
    <i name="e_fr_energy">    -67.47762051 </i>
    <i name="e_wo_entrp">    -67.36709281 </i>
    <i name="e_0_energy">    -67.42235666 </i>
   </energy>
  </scstep>
  <scstep>
   <time name="diag">    0.07    0.07</time>
   <time name="diis">    0.10    0.10</time>
   <time name="orth">    0.01    0.01</time>
   <time name="total">    0.26    0.27</time>
   <dipole>
    <v name="dipole">      0.32738817       0.32738817      -0.32738817 </v>
    <i name="Tr[quadrupol]">   -311.00227611 </i>
    <i name="Echarged">      0.00000000 </i>
    <i name="Edipol_quadrupol">      0.00000000 </i>
    <i name="Eion">      0.00000000 </i>
   </dipole>
   <energy>
    <i name="e_fr_energy">    -67.47763083 </i>
    <i name="e_wo_entrp">    -67.36657421 </i>
    <i name="e_0_energy">    -67.42210252 </i>
   </energy>
  </scstep>
  <scstep>
   <time name="diag">    0.07    0.07</time>
   <time name="diis">    0.10    0.10</time>
   <time name="orth">    0.01    0.01</time>
   <time name="total">    0.27    0.27</time>
   <dipole>
    <v name="dipole">      0.32608301       0.32608301      -0.32608301 </v>
    <i name="Tr[quadrupol]">   -311.00520079 </i>
    <i name="Echarged">      0.00000000 </i>
    <i name="Edipol_quadrupol">      0.00000000 </i>
    <i name="Eion">      0.00000000 </i>
   </dipole>
   <energy>
    <i name="e_fr_energy">    -67.47744441 </i>
    <i name="e_wo_entrp">    -67.36772587 </i>
    <i name="e_0_energy">    -67.42258514 </i>
   </energy>
  </scstep>
  <scstep>
   <time name="diag">    0.07    0.07</time>
   <time name="diis">    0.10    0.10</time>
   <time name="orth">    0.01    0.01</time>
   <time name="total">    0.26    0.27</time>
   <dipole>
    <v name="dipole">      0.32604068       0.32604068      -0.32604068 </v>
    <i name="Tr[quadrupol]">   -310.99695643 </i>
    <i name="Echarged">      0.00000000 </i>
    <i name="Edipol_quadrupol">      0.00000000 </i>
    <i name="Eion">      0.00000000 </i>
   </dipole>
   <energy>
    <i name="e_fr_energy">    -67.47743084 </i>
    <i name="e_wo_entrp">    -67.36727087 </i>
    <i name="e_0_energy">    -67.42235085 </i>
   </energy>
  </scstep>
  <scstep>
   <time name="diag">    0.07    0.07</time>
   <time name="diis">    0.11    0.11</time>
   <time name="orth">    0.01    0.01</time>
   <time name="total">    0.28    0.28</time>
   <dipole>
    <v name="dipole">      0.32600156       0.32600156      -0.32600156 </v>
    <i name="Tr[quadrupol]">   -311.00396193 </i>
    <i name="Echarged">      0.00000000 </i>
    <i name="Edipol_quadrupol">      0.00000000 </i>
    <i name="Eion">      0.00000000 </i>
   </dipole>
   <energy>
    <i name="e_fr_energy">    -67.47742779 </i>
    <i name="e_wo_entrp">    -67.36712419 </i>
    <i name="e_0_energy">    -67.42227599 </i>
   </energy>
  </scstep>
  <scstep>
   <time name="diag">    0.07    0.07</time>
   <time name="diis">    0.09    0.09</time>
   <time name="orth">    0.01    0.01</time>
   <time name="total">    0.25    0.26</time>
   <dipole>
    <v name="dipole">      0.32590238       0.32590238      -0.32590238 </v>
    <i name="Tr[quadrupol]">   -311.00729954 </i>
    <i name="Echarged">      0.00000000 </i>
    <i name="Edipol_quadrupol">      0.00000000 </i>
    <i name="Eion">      0.00000000 </i>
   </dipole>
   <energy>
    <i name="e_fr_energy">    -67.47741298 </i>
    <i name="e_wo_entrp">    -67.36723485 </i>
    <i name="e_0_energy">    -67.42232392 </i>
   </energy>
  </scstep>
  <scstep>
   <time name="diag">    0.07    0.07</time>
   <time name="diis">    0.09    0.09</time>
   <time name="orth">    0.01    0.01</time>
   <time name="total">    0.26    0.26</time>
   <dipole>
    <v name="dipole">      0.32592815       0.32592815      -0.32592815 </v>
    <i name="Tr[quadrupol]">   -311.00830781 </i>
    <i name="Echarged">      0.00000000 </i>
    <i name="Edipol_quadrupol">      0.00000000 </i>
    <i name="Eion">      0.00000000 </i>
   </dipole>
   <energy>
    <i name="e_fr_energy">    -67.47741744 </i>
    <i name="e_wo_entrp">    -67.36705402 </i>
    <i name="e_0_energy">    -67.42223573 </i>
   </energy>
  </scstep>
  <scstep>
   <time name="diag">    0.07    0.07</time>
   <time name="diis">    0.15    0.20</time>
   <time name="orth">    0.02    0.02</time>
   <time name="total">    0.32    0.38</time>
   <dipole>
    <v name="dipole">      0.32591416       0.32591416      -0.32591416 </v>
    <i name="Tr[quadrupol]">   -311.00836071 </i>
    <i name="Echarged">      0.00000000 </i>
    <i name="Edipol_quadrupol">      0.00000000 </i>
    <i name="Eion">      0.00000000 </i>
   </dipole>
   <energy>
    <i name="e_fr_energy">    -67.47741508 </i>
    <i name="e_wo_entrp">    -67.36710261 </i>
    <i name="e_0_energy">    -67.42225884 </i>
   </energy>
  </scstep>
  <scstep>
   <time name="diag">    0.07    0.07</time>
   <time name="diis">    0.09    0.09</time>
   <time name="orth">    0.01    0.01</time>
   <time name="total">    0.26    0.26</time>
   <dipole>
    <v name="dipole">      0.32591500       0.32591500      -0.32591500 </v>
    <i name="Tr[quadrupol]">   -311.00884472 </i>
    <i name="Echarged">      0.00000000 </i>
    <i name="Edipol_quadrupol">      0.00000000 </i>
    <i name="Eion">      0.00000000 </i>
   </dipole>
   <energy>
    <i name="e_fr_energy">    -67.47741529 </i>
    <i name="e_wo_entrp">    -67.36711775 </i>
    <i name="e_0_energy">    -67.42226652 </i>
   </energy>
  </scstep>
  <scstep>
   <time name="diag">    0.07    0.07</time>
   <time name="diis">    0.08    0.08</time>
   <time name="orth">    0.01    0.01</time>
   <time name="total">    0.24    0.24</time>
   <dipole>
    <v name="dipole">      0.32592158       0.32592158      -0.32592158 </v>
    <i name="Tr[quadrupol]">   -311.00901543 </i>
    <i name="Echarged">      0.00000000 </i>
    <i name="Edipol_quadrupol">      0.00000000 </i>
    <i name="Eion">      0.00000000 </i>
   </dipole>
   <energy>
    <i name="e_fr_energy">    -67.47741645 </i>
    <i name="e_wo_entrp">    -67.36711388 </i>
    <i name="e_0_energy">    -67.42226517 </i>
   </energy>
  </scstep>
  <scstep>
   <time name="diag">    0.07    0.07</time>
   <time name="diis">    0.07    0.07</time>
   <time name="orth">    0.01    0.01</time>
   <time name="total">    0.24    0.24</time>
   <dipole>
    <v name="dipole">      0.32591404       0.32591404      -0.32591404 </v>
    <i name="Tr[quadrupol]">   -311.00926918 </i>
    <i name="Echarged">      0.00000000 </i>
    <i name="Edipol_quadrupol">      0.00000000 </i>
    <i name="Eion">      0.00000000 </i>
   </dipole>
   <energy>
    <i name="e_fr_energy">    -67.47741523 </i>
    <i name="e_wo_entrp">    -67.36712472 </i>
    <i name="e_0_energy">    -67.42226997 </i>
   </energy>
  </scstep>
  <scstep>
   <time name="diag">    0.07    0.07</time>
   <time name="diis">    0.07    0.07</time>
   <time name="orth">    0.01    0.01</time>
   <time name="total">    0.24    0.24</time>
   <dipole>
    <v name="dipole">      0.32591486       0.32591486      -0.32591486 </v>
    <i name="Tr[quadrupol]">   -311.00950863 </i>
    <i name="Echarged">      0.00000000 </i>
    <i name="Edipol_quadrupol">      0.00000000 </i>
    <i name="Eion">      0.00000000 </i>
   </dipole>
   <energy>
    <i name="e_fr_energy">    -67.47741537 </i>
    <i name="e_wo_entrp">    -67.36713051 </i>
    <i name="e_0_energy">    -67.42227294 </i>
   </energy>
  </scstep>
  <scstep>
   <time name="diag">    0.07    0.07</time>
   <time name="diis">    0.07    0.07</time>
   <time name="orth">    0.01    0.01</time>
   <time name="total">    0.24    0.24</time>
   <dipole>
    <v name="dipole">      0.32591549       0.32591549      -0.32591549 </v>
    <i name="Tr[quadrupol]">   -311.00962116 </i>
    <i name="Echarged">      0.00000000 </i>
    <i name="Edipol_quadrupol">      0.00000000 </i>
    <i name="Eion">      0.00000000 </i>
   </dipole>
   <energy>
    <i name="e_fr_energy">    -67.47741549 </i>
    <i name="e_wo_entrp">    -67.36713322 </i>
    <i name="e_0_energy">    -67.42227435 </i>
   </energy>
  </scstep>
  <scstep>
   <time name="diag">    0.07    0.07</time>
   <time name="diis">    0.07    0.07</time>
   <time name="orth">    0.01    0.01</time>
   <time name="total">    0.24    0.24</time>
   <dipole>
    <v name="dipole">      0.32591677       0.32591677      -0.32591677 </v>
    <i name="Tr[quadrupol]">   -311.00966913 </i>
    <i name="Echarged">      0.00000000 </i>
    <i name="Edipol_quadrupol">      0.00000000 </i>
    <i name="Eion">      0.00000000 </i>
   </dipole>
   <energy>
    <i name="e_fr_energy">    -67.47741570 </i>
    <i name="e_wo_entrp">    -67.36713351 </i>
    <i name="e_0_energy">    -67.42227461 </i>
   </energy>
  </scstep>
  <scstep>
   <time name="diag">    0.07    0.07</time>
   <time name="diis">    0.07    0.07</time>
   <time name="orth">    0.01    0.01</time>
   <time name="total">    0.23    0.23</time>
   <dipole>
    <v name="dipole">      0.32591759       0.32591759      -0.32591759 </v>
    <i name="Tr[quadrupol]">   -311.00970746 </i>
    <i name="Echarged">      0.00000000 </i>
    <i name="Edipol_quadrupol">      0.00000000 </i>
    <i name="Eion">      0.00000000 </i>
   </dipole>
   <energy>
    <i name="e_fr_energy">    -67.47741584 </i>
    <i name="e_wo_entrp">    -67.36713324 </i>
    <i name="e_0_energy">    -67.42227454 </i>
   </energy>
  </scstep>
  <scstep>
   <time name="diag">    0.07    0.07</time>
   <time name="diis">    0.06    0.06</time>
   <time name="orth">    0.01    0.01</time>
   <time name="total">    0.25    0.25</time>
   <dipole>
    <v name="dipole">      0.32591792       0.32591792      -0.32591792 </v>
    <i name="Tr[quadrupol]">   -311.00970470 </i>
    <i name="Echarged">      0.00000000 </i>
    <i name="Edipol_quadrupol">      0.00000000 </i>
    <i name="Eion">      0.00000000 </i>
   </dipole>
   <energy>
    <i name="e_fr_energy">    -67.47741589 </i>
    <i name="e_wo_entrp">    -67.36713365 </i>
    <i name="e_0_energy">    -67.42227477 </i>
   </energy>
  </scstep>
  <scstep>
   <time name="diag">    0.24    0.29</time>
   <time name="diis">    0.06    0.06</time>
   <time name="orth">    0.01    0.01</time>
   <time name="total">    0.42    0.47</time>
   <dipole>
    <v name="dipole">      0.32591808       0.32591808      -0.32591808 </v>
    <i name="Tr[quadrupol]">   -311.00970929 </i>
    <i name="Echarged">      0.00000000 </i>
    <i name="Edipol_quadrupol">      0.00000000 </i>
    <i name="Eion">      0.00000000 </i>
   </dipole>
   <energy>
    <i name="e_fr_energy">    -67.47741592 </i>
    <i name="e_wo_entrp">    -67.36713409 </i>
    <i name="e_0_energy">    -67.42227500 </i>
   </energy>
  </scstep>
  <scstep>
   <time name="diag">    0.07    0.07</time>
   <time name="diis">    0.06    0.06</time>
   <time name="orth">    0.01    0.01</time>
   <time name="total">    0.20    0.20</time>
   <dipole>
    <v name="dipole">      0.32591811       0.32591811      -0.32591811 </v>
    <i name="Tr[quadrupol]">   -311.00971778 </i>
    <i name="Echarged">      0.00000000 </i>
    <i name="Edipol_quadrupol">      0.00000000 </i>
    <i name="Eion">      0.00000000 </i>
   </dipole>
   <energy>
    <i name="alphaZ">     -5.43209694 </i>
    <i name="ewald">   2793.72358906 </i>
    <i name="hartreedc">  -6043.07682079 </i>
    <i name="XCdc">   -238.08571680 </i>
    <i name="pawpsdc">   4151.63368898 </i>
    <i name="pawaedc">  -3710.66072975 </i>
    <i name="eentropy">     -0.11028172 </i>
    <i name="bandstr">   -445.28628785 </i>
    <i name="atom">   3429.81723989 </i>
    <i name="e_fr_energy">    -67.47741593 </i>
    <i name="e_wo_entrp">    -67.36713420 </i>
    <i name="e_0_energy">    -67.42227506 </i>
   </energy>
  </scstep>
  <structure>
   <crystal>
    <varray name="basis" >
     <v>       6.08889219       1.63151375       0.00000000 </v>
     <v>      -4.45737844       4.45737844       0.00000000 </v>
     <v>     -21.00714007     -21.00714007      21.00714007 </v>
    </varray>
    <i name="volume">    722.91390052 </i>
    <varray name="rec_basis" >
     <v>       0.12952687       0.12952687       0.25905374 </v>
     <v>      -0.04741012       0.17693699       0.12952687 </v>
     <v>       0.00000000       0.00000000       0.04760286 </v>
    </varray>
   </crystal>
   <varray name="positions" >
    <v>       0.00000035       0.50000017       0.34686940 </v>
    <v>       0.00000035       0.50000017       0.46937388 </v>
    <v>       0.00000035       0.50000017       0.59187835 </v>
    <v>       0.00000035       0.50000017       0.71438283 </v>
    <v>       0.50000027       0.50000017       0.34686940 </v>
    <v>       0.50000027       0.00000010       0.34686940 </v>
    <v>       0.50000027       0.50000017       0.46937388 </v>
    <v>       0.50000027       0.00000010       0.46937388 </v>
    <v>       0.50000027       0.50000017       0.59187835 </v>
    <v>       0.50000027       0.00000010       0.59187835 </v>
    <v>       0.50000027       0.50000017       0.71438283 </v>
    <v>       0.50000027       0.00000010       0.71438283 </v>
    <v>       0.00000035       0.50000017       0.28561717 </v>
    <v>       0.00000035       0.50000017       0.40812165 </v>
    <v>       0.00000035       0.50000017       0.53062612 </v>
    <v>       0.00000035       0.50000017       0.65313060 </v>
    <v>       0.00000020       0.00000010       0.34686938 </v>
    <v>       0.00000020       0.00000010       0.46937386 </v>
    <v>       0.00000020       0.00000010       0.59187833 </v>
    <v>       0.00000020       0.00000010       0.71438281 </v>
   </varray>
  </structure>
  <varray name="forces" >
   <v>      -0.12604785      -0.12604785      -0.87318680 </v>
   <v>      -0.28841227      -0.28841227      -0.70415934 </v>
   <v>      -0.12977907      -0.12977907      -0.58755093 </v>
   <v>       0.00533182       0.00533182      -0.47434012 </v>
   <v>      -0.25541562      -0.15874982      -0.87826331 </v>
   <v>      -0.15874982      -0.25541562      -0.87826331 </v>
   <v>      -0.03493632      -0.21982098      -0.70506343 </v>
   <v>      -0.21982098      -0.03493632      -0.70506343 </v>
   <v>      -0.24284398      -0.16303286      -0.58075812 </v>
   <v>      -0.16303286      -0.24284398      -0.58075812 </v>
   <v>      -0.42383251      -0.11242667      -0.46997380 </v>
   <v>      -0.11242667      -0.42383251      -0.46997380 </v>
   <v>       0.21978206       0.21978206       1.32582695 </v>
   <v>       0.22510807       0.22510807       0.70007445 </v>
   <v>       0.23024262       0.23024262       0.93838524 </v>
   <v>       0.23633772       0.23633772       1.07280513 </v>
   <v>       0.30915009       0.30915009       1.28495790 </v>
   <v>       0.30901945       0.30901945       0.92104030 </v>
   <v>       0.30900793       0.30900793       1.02759844 </v>
   <v>       0.31131818       0.31131818       0.63666610 </v>
  </varray>
  <varray name="stress" >
   <v>      -0.23453991       0.07126754      -0.09613395 </v>
   <v>       0.07126754      -0.23453991      -0.09613395 </v>
   <v>      -0.09613395      -0.09613395      -6.92056755 </v>
  </varray>
  <energy>
   <i name="e_fr_energy">    -67.47741593 </i>
   <i name="e_wo_entrp">    -67.36713420 </i>
   <i name="e_0_energy">    -67.42227506 </i>
  </energy>
  <time name="totalsc">   15.89   16.88</time>
  <eigenvalues>
   <array>
    <dimension dim="1">band</dimension>
    <dimension dim="2">kpoint</dimension>
    <dimension dim="3">spin</dimension>
    <field>eigene</field>
    <field>occ</field>
    <set>
     <set comment="spin 1">
      <set comment="kpoint 1">
       <r>  -17.5779    1.0000 </r>
       <r>  -17.3919    1.0000 </r>
       <r>  -17.3615    1.0000 </r>
       <r>  -16.6675    1.0000 </r>
       <r>  -16.5323    1.0000 </r>
       <r>  -16.1380    1.0000 </r>
       <r>  -15.8547    1.0000 </r>
       <r>  -15.1464    1.0000 </r>
       <r>   -6.0681    1.0000 </r>
       <r>   -6.0389    1.0000 </r>
       <r>   -6.0386    1.0000 </r>
       <r>   -5.8362    1.0000 </r>
       <r>   -5.8360    1.0000 </r>
       <r>   -5.6761    1.0000 </r>
       <r>   -5.1679    1.0000 </r>
       <r>   -5.1034    1.0000 </r>
       <r>   -5.1033    1.0000 </r>
       <r>   -3.7173    1.0000 </r>
       <r>   -3.7172    1.0000 </r>
       <r>   -3.5595    1.0000 </r>
       <r>   -3.5383    1.0000 </r>
       <r>   -3.4049    1.0000 </r>
       <r>   -3.4041    1.0000 </r>
       <r>   -2.5052    1.0000 </r>
       <r>   -2.5044    1.0000 </r>
       <r>   -2.4672    1.0000 </r>
       <r>   -2.1666    1.0000 </r>
       <r>   -1.9616    1.0000 </r>
       <r>   -1.9607    1.0000 </r>
       <r>   -1.7779    1.0000 </r>
       <r>   -1.3710    0.9143 </r>
       <r>   -1.3285    0.7782 </r>
       <r>   -1.3275    0.7740 </r>
       <r>    0.4296    0.0000 </r>
       <r>    1.0771    0.0000 </r>
       <r>    1.9614    0.0000 </r>
       <r>    2.1746    0.0000 </r>
       <r>    2.2284    0.0000 </r>
       <r>    2.2289    0.0000 </r>
       <r>    3.1204    0.0000 </r>
       <r>    3.4775    0.0000 </r>
       <r>    3.4791    0.0000 </r>
       <r>    4.4473    0.0000 </r>
       <r>    4.4477    0.0000 </r>
       <r>    4.5550    0.0000 </r>
       <r>    4.8907    0.0000 </r>
       <r>    5.3742    0.0000 </r>
       <r>    5.3770    0.0000 </r>
      </set>
      <set comment="kpoint 2">
       <r>  -17.5539    1.0000 </r>
       <r>  -17.4023    1.0000 </r>
       <r>  -17.3699    1.0000 </r>
       <r>  -16.6498    1.0000 </r>
       <r>  -16.5478    1.0000 </r>
       <r>  -16.1388    1.0000 </r>
       <r>  -15.8555    1.0000 </r>
       <r>  -15.1488    1.0000 </r>
       <r>   -6.2130    1.0000 </r>
       <r>   -6.1213    1.0000 </r>
       <r>   -6.0538    1.0000 </r>
       <r>   -5.8310    1.0000 </r>
       <r>   -5.8064    1.0000 </r>
       <r>   -5.6338    1.0000 </r>
       <r>   -5.1722    1.0000 </r>
       <r>   -5.1226    1.0000 </r>
       <r>   -5.1186    1.0000 </r>
       <r>   -3.7486    1.0000 </r>
       <r>   -3.7348    1.0000 </r>
       <r>   -3.5452    1.0000 </r>
       <r>   -3.5122    1.0000 </r>
       <r>   -3.4101    1.0000 </r>
       <r>   -3.3610    1.0000 </r>
       <r>   -2.5489    1.0000 </r>
       <r>   -2.4719    1.0000 </r>
       <r>   -2.4156    1.0000 </r>
       <r>   -2.1030    1.0000 </r>
       <r>   -1.9921    1.0000 </r>
       <r>   -1.9341    1.0000 </r>
       <r>   -1.4616    0.9960 </r>
       <r>   -1.3725    0.9174 </r>
       <r>   -1.3418    0.8298 </r>
       <r>   -1.3346    0.8028 </r>
       <r>    0.5561    0.0000 </r>
       <r>    0.9701    0.0000 </r>
       <r>    1.6623    0.0000 </r>
       <r>    2.2713    0.0000 </r>
       <r>    2.2894    0.0000 </r>
       <r>    2.7111    0.0000 </r>
       <r>    3.1081    0.0000 </r>
       <r>    3.3690    0.0000 </r>
       <r>    3.6455    0.0000 </r>
       <r>    3.9325    0.0000 </r>
       <r>    4.4675    0.0000 </r>
       <r>    4.6711    0.0000 </r>
       <r>    4.9359    0.0000 </r>
       <r>    5.3180    0.0000 </r>
       <r>    5.5126    0.0000 </r>
      </set>
      <set comment="kpoint 3">
       <r>  -17.5227    1.0000 </r>
       <r>  -17.4205    1.0000 </r>
       <r>  -17.3776    1.0000 </r>
       <r>  -16.6232    1.0000 </r>
       <r>  -16.5722    1.0000 </r>
       <r>  -16.1398    1.0000 </r>
       <r>  -15.8562    1.0000 </r>
       <r>  -15.1513    1.0000 </r>
       <r>   -6.2959    1.0000 </r>
       <r>   -6.1850    1.0000 </r>
       <r>   -6.0947    1.0000 </r>
       <r>   -5.8464    1.0000 </r>
       <r>   -5.7954    1.0000 </r>
       <r>   -5.6079    1.0000 </r>
       <r>   -5.1838    1.0000 </r>
       <r>   -5.1330    1.0000 </r>
       <r>   -5.1324    1.0000 </r>
       <r>   -3.7907    1.0000 </r>
       <r>   -3.7520    1.0000 </r>
       <r>   -3.5462    1.0000 </r>
       <r>   -3.4859    1.0000 </r>
       <r>   -3.3866    1.0000 </r>
       <r>   -3.3188    1.0000 </r>
       <r>   -2.5591    1.0000 </r>
       <r>   -2.4401    1.0000 </r>
       <r>   -2.3793    1.0000 </r>
       <r>   -2.0888    1.0000 </r>
       <r>   -1.9759    1.0000 </r>
       <r>   -1.9071    1.0000 </r>
       <r>   -1.3766    0.9259 </r>
       <r>   -1.3420    0.8306 </r>
       <r>   -1.3414    0.8285 </r>
       <r>   -0.9750    0.0000 </r>
       <r>   -0.0174    0.0000 </r>
       <r>    1.4231    0.0000 </r>
       <r>    2.0426    0.0000 </r>
       <r>    2.2225    0.0000 </r>
       <r>    2.3159    0.0000 </r>
       <r>    2.6432    0.0000 </r>
       <r>    2.6762    0.0000 </r>
       <r>    3.3234    0.0000 </r>
       <r>    3.3983    0.0000 </r>
       <r>    3.4653    0.0000 </r>
       <r>    4.2334    0.0000 </r>
       <r>    4.3673    0.0000 </r>
       <r>    4.4142    0.0000 </r>
       <r>    4.8662    0.0000 </r>
       <r>    5.3468    0.0000 </r>
      </set>
      <set comment="kpoint 4">
       <r>  -17.5397    1.0000 </r>
       <r>  -17.4099    1.0000 </r>
       <r>  -17.3739    1.0000 </r>
       <r>  -16.6386    1.0000 </r>
       <r>  -16.5580    1.0000 </r>
       <r>  -16.1393    1.0000 </r>
       <r>  -15.8559    1.0000 </r>
       <r>  -15.1500    1.0000 </r>
       <r>   -6.2578    1.0000 </r>
       <r>   -6.1549    1.0000 </r>
       <r>   -6.0737    1.0000 </r>
       <r>   -5.8363    1.0000 </r>
       <r>   -5.7997    1.0000 </r>
       <r>   -5.6201    1.0000 </r>
       <r>   -5.1771    1.0000 </r>
       <r>   -5.1285    1.0000 </r>
       <r>   -5.1259    1.0000 </r>
       <r>   -3.7686    1.0000 </r>
       <r>   -3.7435    1.0000 </r>
       <r>   -3.5438    1.0000 </r>
       <r>   -3.4964    1.0000 </r>
       <r>   -3.4039    1.0000 </r>
       <r>   -3.3405    1.0000 </r>
       <r>   -2.5541    1.0000 </r>
       <r>   -2.4566    1.0000 </r>
       <r>   -2.3966    1.0000 </r>
       <r>   -2.0964    1.0000 </r>
       <r>   -1.9849    1.0000 </r>
       <r>   -1.9215    1.0000 </r>
       <r>   -1.3821    0.9362 </r>
       <r>   -1.3447    0.8402 </r>
       <r>   -1.3384    0.8174 </r>
       <r>   -1.2485    0.3575 </r>
       <r>    0.3200    0.0000 </r>
       <r>    1.1471    0.0000 </r>
       <r>    1.8711    0.0000 </r>
       <r>    2.1685    0.0000 </r>
       <r>    2.3062    0.0000 </r>
       <r>    2.6967    0.0000 </r>
       <r>    2.9948    0.0000 </r>
       <r>    3.2796    0.0000 </r>
       <r>    3.3682    0.0000 </r>
       <r>    3.4956    0.0000 </r>
       <r>    3.9021    0.0000 </r>
       <r>    4.3102    0.0000 </r>
       <r>    4.5579    0.0000 </r>
       <r>    4.7892    0.0000 </r>
       <r>    5.3324    0.0000 </r>
      </set>
      <set comment="kpoint 5">
       <r>  -17.5176    1.0000 </r>
       <r>  -17.4179    1.0000 </r>
       <r>  -17.3842    1.0000 </r>
       <r>  -16.6155    1.0000 </r>
       <r>  -16.5793    1.0000 </r>
       <r>  -16.1401    1.0000 </r>
       <r>  -15.8561    1.0000 </r>
       <r>  -15.1518    1.0000 </r>
       <r>   -6.3081    1.0000 </r>
       <r>   -6.1816    1.0000 </r>
       <r>   -6.0925    1.0000 </r>
       <r>   -5.8476    1.0000 </r>
       <r>   -5.8373    1.0000 </r>
       <r>   -5.5944    1.0000 </r>
       <r>   -5.1646    1.0000 </r>
       <r>   -5.1501    1.0000 </r>
       <r>   -5.1412    1.0000 </r>
       <r>   -3.7946    1.0000 </r>
       <r>   -3.7700    1.0000 </r>
       <r>   -3.5232    1.0000 </r>
       <r>   -3.4420    1.0000 </r>
       <r>   -3.3919    1.0000 </r>
       <r>   -3.3529    1.0000 </r>
       <r>   -2.5148    1.0000 </r>
       <r>   -2.4622    1.0000 </r>
       <r>   -2.3792    1.0000 </r>
       <r>   -2.0681    1.0000 </r>
       <r>   -1.9879    1.0000 </r>
       <r>   -1.9069    1.0000 </r>
       <r>   -1.3659    0.9023 </r>
       <r>   -1.3489    0.8543 </r>
       <r>   -1.3341    0.8010 </r>
       <r>   -0.9224    0.0000 </r>
       <r>    0.1532    0.0000 </r>
       <r>    1.0520    0.0000 </r>
       <r>    1.5979    0.0000 </r>
       <r>    2.4265    0.0000 </r>
       <r>    2.6039    0.0000 </r>
       <r>    2.8155    0.0000 </r>
       <r>    2.9329    0.0000 </r>
       <r>    3.1802    0.0000 </r>
       <r>    3.4506    0.0000 </r>
       <r>    3.5265    0.0000 </r>
       <r>    3.9969    0.0000 </r>
       <r>    4.4788    0.0000 </r>
       <r>    4.8816    0.0000 </r>
       <r>    5.0968    0.0000 </r>
       <r>    5.3797    0.0000 </r>
      </set>
      <set comment="kpoint 6">
       <r>  -17.5237    1.0000 </r>
       <r>  -17.4167    1.0000 </r>
       <r>  -17.3803    1.0000 </r>
       <r>  -16.6235    1.0000 </r>
       <r>  -16.5717    1.0000 </r>
       <r>  -16.1398    1.0000 </r>
       <r>  -15.8560    1.0000 </r>
       <r>  -15.1513    1.0000 </r>
       <r>   -6.2961    1.0000 </r>
       <r>   -6.1766    1.0000 </r>
       <r>   -6.0896    1.0000 </r>
       <r>   -5.8436    1.0000 </r>
       <r>   -5.8203    1.0000 </r>
       <r>   -5.6025    1.0000 </r>
       <r>   -5.1733    1.0000 </r>
       <r>   -5.1436    1.0000 </r>
       <r>   -5.1324    1.0000 </r>
       <r>   -3.7873    1.0000 </r>
       <r>   -3.7614    1.0000 </r>
       <r>   -3.5307    1.0000 </r>
       <r>   -3.4659    1.0000 </r>
       <r>   -3.3980    1.0000 </r>
       <r>   -3.3370    1.0000 </r>
       <r>   -2.5352    1.0000 </r>
       <r>   -2.4546    1.0000 </r>
       <r>   -2.3814    1.0000 </r>
       <r>   -2.0821    1.0000 </r>
       <r>   -1.9814    1.0000 </r>
       <r>   -1.9102    1.0000 </r>
       <r>   -1.3729    0.9183 </r>
       <r>   -1.3486    0.8530 </r>
       <r>   -1.3336    0.7988 </r>
       <r>   -1.0129    0.0001 </r>
       <r>    0.1410    0.0000 </r>
       <r>    1.2895    0.0000 </r>
       <r>    1.5577    0.0000 </r>
       <r>    2.3044    0.0000 </r>
       <r>    2.4681    0.0000 </r>
       <r>    2.8268    0.0000 </r>
       <r>    2.9685    0.0000 </r>
       <r>    3.1959    0.0000 </r>
       <r>    3.3792    0.0000 </r>
       <r>    3.6026    0.0000 </r>
       <r>    3.9012    0.0000 </r>
       <r>    4.3689    0.0000 </r>
       <r>    4.6691    0.0000 </r>
       <r>    4.8972    0.0000 </r>
       <r>    5.2318    0.0000 </r>
      </set>
      <set comment="kpoint 7">
       <r>  -17.5452    1.0000 </r>
       <r>  -17.4065    1.0000 </r>
       <r>  -17.3728    1.0000 </r>
       <r>  -16.6430    1.0000 </r>
       <r>  -16.5540    1.0000 </r>
       <r>  -16.1391    1.0000 </r>
       <r>  -15.8558    1.0000 </r>
       <r>  -15.1496    1.0000 </r>
       <r>   -6.2428    1.0000 </r>
       <r>   -6.1412    1.0000 </r>
       <r>   -6.0652    1.0000 </r>
       <r>   -5.8330    1.0000 </r>
       <r>   -5.8067    1.0000 </r>
       <r>   -5.6238    1.0000 </r>
       <r>   -5.1733    1.0000 </r>
       <r>   -5.1295    1.0000 </r>
       <r>   -5.1220    1.0000 </r>
       <r>   -3.7595    1.0000 </r>
       <r>   -3.7427    1.0000 </r>
       <r>   -3.5414    1.0000 </r>
       <r>   -3.4984    1.0000 </r>
       <r>   -3.4105    1.0000 </r>
       <r>   -3.3499    1.0000 </r>
       <r>   -2.5481    1.0000 </r>
       <r>   -2.4658    1.0000 </r>
       <r>   -2.4030    1.0000 </r>
       <r>   -2.0969    1.0000 </r>
       <r>   -1.9896    1.0000 </r>
       <r>   -1.9265    1.0000 </r>
       <r>   -1.3880    0.9460 </r>
       <r>   -1.3499    0.8574 </r>
       <r>   -1.3359    0.8079 </r>
       <r>   -1.3193    0.7378 </r>
       <r>    0.4417    0.0000 </r>
       <r>    1.0606    0.0000 </r>
       <r>    1.7819    0.0000 </r>
       <r>    1.9990    0.0000 </r>
       <r>    2.4946    0.0000 </r>
       <r>    2.7093    0.0000 </r>
       <r>    3.0627    0.0000 </r>
       <r>    3.2734    0.0000 </r>
       <r>    3.4696    0.0000 </r>
       <r>    3.9520    0.0000 </r>
       <r>    4.5680    0.0000 </r>
       <r>    4.6385    0.0000 </r>
       <r>    4.8630    0.0000 </r>
       <r>    5.3490    0.0000 </r>
       <r>    5.6014    0.0000 </r>
      </set>
     </set>
    </set>
   </array>
  </eigenvalues>
  <separator name="orbital magnetization" >
   <v name="MAGDIPOLOUT">      0.00000000      0.00000000      0.00000000</v>
  </separator>
  <dos>
   <i name="efermi">     -1.27434579 </i>
   <total>
    <array>
     <dimension dim="1">gridpoints</dimension>
     <dimension dim="2">spin</dimension>
     <field>energy</field>
     <field>total</field>
     <field>integrated</field>
     <set>
      <set comment="spin 1">
       <r>   -18.7369     0.0000     0.0000 </r>
       <r>   -18.6519     0.0000     0.0000 </r>
       <r>   -18.5669     0.0000     0.0000 </r>
       <r>   -18.4819     0.0000     0.0000 </r>
       <r>   -18.3969     0.0000     0.0000 </r>
       <r>   -18.3120     0.0000     0.0000 </r>
       <r>   -18.2270     0.0000     0.0000 </r>
       <r>   -18.1420     0.0000     0.0000 </r>
       <r>   -18.0570     0.0000     0.0000 </r>
       <r>   -17.9720     0.0000     0.0000 </r>
       <r>   -17.8870     0.0000     0.0000 </r>
       <r>   -17.8020     0.0037     0.0003 </r>
       <r>   -17.7170     0.1670     0.0145 </r>
       <r>   -17.6320     2.1962     0.2012 </r>
       <r>   -17.5470     9.0912     0.9738 </r>
       <r>   -17.4621    16.6629     2.3900 </r>
       <r>   -17.3771    22.5588     4.3073 </r>
       <r>   -17.2921    15.9071     5.6593 </r>
       <r>   -17.2071     3.7460     5.9776 </r>
       <r>   -17.1221     0.2580     5.9996 </r>
       <r>   -17.0371     0.0049     6.0000 </r>
       <r>   -16.9521     0.0002     6.0000 </r>
       <r>   -16.8671     0.0167     6.0014 </r>
       <r>   -16.7821     0.5190     6.0455 </r>
       <r>   -16.6971     4.8229     6.4554 </r>
       <r>   -16.6121    15.0103     7.7312 </r>
       <r>   -16.5272    17.5671     9.2242 </r>
       <r>   -16.4422     7.8578     9.8921 </r>
       <r>   -16.3572     1.2364     9.9972 </r>
       <r>   -16.2722     0.7420    10.0602 </r>
       <r>   -16.1872     5.1571    10.4985 </r>
       <r>   -16.1022    10.6182    11.4010 </r>
       <r>   -16.0172     6.3218    11.9383 </r>
       <r>   -15.9322     3.9777    12.2763 </r>
       <r>   -15.8472     9.6477    13.0963 </r>
       <r>   -15.7622     8.4462    13.8142 </r>
       <r>   -15.6772     2.0505    13.9884 </r>
       <r>   -15.5923     0.1339    13.9998 </r>
       <r>   -15.5073     0.0023    14.0000 </r>
       <r>   -15.4223     0.0014    14.0001 </r>
       <r>   -15.3373     0.0941    14.0081 </r>
       <r>   -15.2523     1.6497    14.1483 </r>
       <r>   -15.1673     7.7545    14.8074 </r>
       <r>   -15.0823    10.0538    15.6619 </r>
       <r>   -14.9973     3.6160    15.9692 </r>
       <r>   -14.9123     0.3534    15.9992 </r>
       <r>   -14.8273     0.0091    16.0000 </r>
       <r>   -14.7423     0.0001    16.0000 </r>
       <r>   -14.6574     0.0000    16.0000 </r>
       <r>   -14.5724     0.0000    16.0000 </r>
       <r>   -14.4874     0.0000    16.0000 </r>
       <r>   -14.4024     0.0000    16.0000 </r>
       <r>   -14.3174     0.0000    16.0000 </r>
       <r>   -14.2324     0.0000    16.0000 </r>
       <r>   -14.1474     0.0000    16.0000 </r>
       <r>   -14.0624     0.0000    16.0000 </r>
       <r>   -13.9774     0.0000    16.0000 </r>
       <r>   -13.8924     0.0000    16.0000 </r>
       <r>   -13.8074     0.0000    16.0000 </r>
       <r>   -13.7225     0.0000    16.0000 </r>
       <r>   -13.6375     0.0000    16.0000 </r>
       <r>   -13.5525     0.0000    16.0000 </r>
       <r>   -13.4675     0.0000    16.0000 </r>
       <r>   -13.3825     0.0000    16.0000 </r>
       <r>   -13.2975     0.0000    16.0000 </r>
       <r>   -13.2125     0.0000    16.0000 </r>
       <r>   -13.1275     0.0000    16.0000 </r>
       <r>   -13.0425     0.0000    16.0000 </r>
       <r>   -12.9575     0.0000    16.0000 </r>
       <r>   -12.8725     0.0000    16.0000 </r>
       <r>   -12.7876     0.0000    16.0000 </r>
       <r>   -12.7026     0.0000    16.0000 </r>
       <r>   -12.6176     0.0000    16.0000 </r>
       <r>   -12.5326     0.0000    16.0000 </r>
       <r>   -12.4476     0.0000    16.0000 </r>
       <r>   -12.3626     0.0000    16.0000 </r>
       <r>   -12.2776     0.0000    16.0000 </r>
       <r>   -12.1926     0.0000    16.0000 </r>
       <r>   -12.1076     0.0000    16.0000 </r>
       <r>   -12.0226     0.0000    16.0000 </r>
       <r>   -11.9376     0.0000    16.0000 </r>
       <r>   -11.8527     0.0000    16.0000 </r>
       <r>   -11.7677     0.0000    16.0000 </r>
       <r>   -11.6827     0.0000    16.0000 </r>
       <r>   -11.5977     0.0000    16.0000 </r>
       <r>   -11.5127     0.0000    16.0000 </r>
       <r>   -11.4277     0.0000    16.0000 </r>
       <r>   -11.3427     0.0000    16.0000 </r>
       <r>   -11.2577     0.0000    16.0000 </r>
       <r>   -11.1727     0.0000    16.0000 </r>
       <r>   -11.0877     0.0000    16.0000 </r>
       <r>   -11.0027     0.0000    16.0000 </r>
       <r>   -10.9178     0.0000    16.0000 </r>
       <r>   -10.8328     0.0000    16.0000 </r>
       <r>   -10.7478     0.0000    16.0000 </r>
       <r>   -10.6628     0.0000    16.0000 </r>
       <r>   -10.5778     0.0000    16.0000 </r>
       <r>   -10.4928     0.0000    16.0000 </r>
       <r>   -10.4078     0.0000    16.0000 </r>
       <r>   -10.3228     0.0000    16.0000 </r>
       <r>   -10.2378     0.0000    16.0000 </r>
       <r>   -10.1528     0.0000    16.0000 </r>
       <r>   -10.0679     0.0000    16.0000 </r>
       <r>    -9.9829     0.0000    16.0000 </r>
       <r>    -9.8979     0.0000    16.0000 </r>
       <r>    -9.8129     0.0000    16.0000 </r>
       <r>    -9.7279     0.0000    16.0000 </r>
       <r>    -9.6429     0.0000    16.0000 </r>
       <r>    -9.5579     0.0000    16.0000 </r>
       <r>    -9.4729     0.0000    16.0000 </r>
       <r>    -9.3879     0.0000    16.0000 </r>
       <r>    -9.3029     0.0000    16.0000 </r>
       <r>    -9.2179     0.0000    16.0000 </r>
       <r>    -9.1330     0.0000    16.0000 </r>
       <r>    -9.0480     0.0000    16.0000 </r>
       <r>    -8.9630     0.0000    16.0000 </r>
       <r>    -8.8780     0.0000    16.0000 </r>
       <r>    -8.7930     0.0000    16.0000 </r>
       <r>    -8.7080     0.0000    16.0000 </r>
       <r>    -8.6230     0.0000    16.0000 </r>
       <r>    -8.5380     0.0000    16.0000 </r>
       <r>    -8.4530     0.0000    16.0000 </r>
       <r>    -8.3680     0.0000    16.0000 </r>
       <r>    -8.2830     0.0000    16.0000 </r>
       <r>    -8.1981     0.0000    16.0000 </r>
       <r>    -8.1131     0.0000    16.0000 </r>
       <r>    -8.0281     0.0000    16.0000 </r>
       <r>    -7.9431     0.0000    16.0000 </r>
       <r>    -7.8581     0.0000    16.0000 </r>
       <r>    -7.7731     0.0000    16.0000 </r>
       <r>    -7.6881     0.0000    16.0000 </r>
       <r>    -7.6031     0.0000    16.0000 </r>
       <r>    -7.5181     0.0000    16.0000 </r>
       <r>    -7.4331     0.0000    16.0000 </r>
       <r>    -7.3481     0.0000    16.0000 </r>
       <r>    -7.2632     0.0000    16.0000 </r>
       <r>    -7.1782     0.0000    16.0000 </r>
       <r>    -7.0932     0.0000    16.0000 </r>
       <r>    -7.0082     0.0000    16.0000 </r>
       <r>    -6.9232     0.0000    16.0000 </r>
       <r>    -6.8382     0.0000    16.0000 </r>
       <r>    -6.7532     0.0000    16.0000 </r>
       <r>    -6.6682     0.0000    16.0000 </r>
       <r>    -6.5832     0.0003    16.0000 </r>
       <r>    -6.4982     0.0282    16.0024 </r>
       <r>    -6.4132     0.6275    16.0558 </r>
       <r>    -6.3283     4.2816    16.4197 </r>
       <r>    -6.2433    11.3184    17.3816 </r>
       <r>    -6.1583    17.3956    18.8601 </r>
       <r>    -6.0733    19.9410    20.5549 </r>
       <r>    -5.9883    13.7835    21.7264 </r>
       <r>    -5.9033     9.7558    22.5555 </r>
       <r>    -5.8183    19.2322    24.1901 </r>
       <r>    -5.7333    18.0709    25.7259 </r>
       <r>    -5.6483    11.0346    26.6638 </r>
       <r>    -5.5633    10.4324    27.5504 </r>
       <r>    -5.4783     4.6454    27.9452 </r>
       <r>    -5.3934     0.6481    28.0003 </r>
       <r>    -5.3084     0.9442    28.0806 </r>
       <r>    -5.2234     9.0879    28.8530 </r>
       <r>    -5.1384    27.2408    31.1682 </r>
       <r>    -5.0534    25.3969    33.3267 </r>
       <r>    -4.9684     7.2876    33.9461 </r>
       <r>    -4.8834     0.6196    33.9987 </r>
       <r>    -4.7984     0.0149    34.0000 </r>
       <r>    -4.7134     0.0001    34.0000 </r>
       <r>    -4.6284     0.0000    34.0000 </r>
       <r>    -4.5434     0.0000    34.0000 </r>
       <r>    -4.4585     0.0000    34.0000 </r>
       <r>    -4.3735     0.0000    34.0000 </r>
       <r>    -4.2885     0.0000    34.0000 </r>
       <r>    -4.2035     0.0000    34.0000 </r>
       <r>    -4.1185     0.0000    34.0000 </r>
       <r>    -4.0335     0.0045    34.0004 </r>
       <r>    -3.9485     0.2336    34.0202 </r>
       <r>    -3.8635     3.4164    34.3106 </r>
       <r>    -3.7785    14.8230    35.5704 </r>
       <r>    -3.6935    20.0434    37.2739 </r>
       <r>    -3.6085    12.8212    38.3636 </r>
       <r>    -3.5236    18.3102    39.9198 </r>
       <r>    -3.4386    26.3636    42.1605 </r>
       <r>    -3.3536    26.0768    44.3768 </r>
       <r>    -3.2686    15.2238    45.6706 </r>
       <r>    -3.1836     3.5884    45.9756 </r>
       <r>    -3.0986     0.2802    45.9994 </r>
       <r>    -3.0136     0.0065    46.0000 </r>
       <r>    -2.9286     0.0000    46.0000 </r>
       <r>    -2.8436     0.0003    46.0000 </r>
       <r>    -2.7586     0.0287    46.0025 </r>
       <r>    -2.6737     0.7675    46.0677 </r>
       <r>    -2.5887     6.1796    46.5929 </r>
       <r>    -2.5037    17.9681    48.1200 </r>
       <r>    -2.4187    24.0297    50.1623 </r>
       <r>    -2.3337    16.3305    51.5503 </r>
       <r>    -2.2487     5.3066    52.0013 </r>
       <r>    -2.1637     4.3568    52.3716 </r>
       <r>    -2.0787    11.9546    53.3876 </r>
       <r>    -1.9937    19.5199    55.0466 </r>
       <r>    -1.9087    21.2310    56.8510 </r>
       <r>    -1.8237    11.7010    57.8455 </r>
       <r>    -1.7388     3.0752    58.1069 </r>
       <r>    -1.6538     0.6378    58.1611 </r>
       <r>    -1.5688     0.4259    58.1973 </r>
       <r>    -1.4838     3.6875    58.5107 </r>
       <r>    -1.3988    18.1077    60.0497 </r>
       <r>    -1.3138    33.8130    62.9235 </r>
       <r>    -1.2288    21.2553    64.7300 </r>
       <r>    -1.1438     4.8383    65.1412 </r>
       <r>    -1.0588     1.6317    65.2799 </r>
       <r>    -0.9738     3.3602    65.5655 </r>
       <r>    -0.8888     3.4925    65.8623 </r>
       <r>    -0.8039     1.4152    65.9826 </r>
       <r>    -0.7189     0.1969    65.9993 </r>
       <r>    -0.6339     0.0081    66.0000 </r>
       <r>    -0.5489     0.0001    66.0000 </r>
       <r>    -0.4639     0.0000    66.0000 </r>
       <r>    -0.3789     0.0000    66.0000 </r>
       <r>    -0.2939     0.0001    66.0000 </r>
       <r>    -0.2089     0.0065    66.0006 </r>
       <r>    -0.1239     0.1231    66.0110 </r>
       <r>    -0.0389     0.6501    66.0663 </r>
       <r>     0.0461     1.4246    66.1874 </r>
       <r>     0.1310     2.9556    66.4386 </r>
       <r>     0.2160     3.6267    66.7468 </r>
       <r>     0.3010     2.6068    66.9684 </r>
       <r>     0.3860     3.0473    67.2273 </r>
       <r>     0.4710     3.6756    67.5397 </r>
       <r>     0.5560     3.1708    67.8092 </r>
       <r>     0.6410     1.7819    67.9607 </r>
       <r>     0.7260     0.4319    67.9974 </r>
       <r>     0.8110     0.0805    68.0042 </r>
       <r>     0.8960     0.6316    68.0579 </r>
       <r>     0.9810     2.8539    68.3004 </r>
       <r>     1.0659     5.7420    68.7885 </r>
       <r>     1.1509     5.5702    69.2619 </r>
       <r>     1.2359     3.2109    69.5348 </r>
       <r>     1.3209     2.3432    69.7339 </r>
       <r>     1.4059     1.8414    69.8904 </r>
       <r>     1.4909     1.9110    70.0528 </r>
       <r>     1.5759     3.6303    70.3614 </r>
       <r>     1.6609     4.6818    70.7593 </r>
       <r>     1.7459     3.6298    71.0678 </r>
       <r>     1.8309     3.3475    71.3523 </r>
       <r>     1.9159     3.6038    71.6586 </r>
       <r>     2.0008     3.9552    71.9947 </r>
       <r>     2.0858     3.7931    72.3171 </r>
       <r>     2.1708     5.0609    72.7472 </r>
       <r>     2.2558     9.4126    73.5472 </r>
       <r>     2.3408    10.7330    74.4594 </r>
       <r>     2.4258     7.4544    75.0930 </r>
       <r>     2.5108     6.0344    75.6059 </r>
       <r>     2.5958     5.4516    76.0692 </r>
       <r>     2.6808     7.4443    76.7019 </r>
       <r>     2.7658     8.4763    77.4223 </r>
       <r>     2.8508     6.6041    77.9836 </r>
       <r>     2.9357     5.9884    78.4925 </r>
       <r>     3.0207     6.9282    79.0814 </r>
       <r>     3.1057     7.2615    79.6985 </r>
       <r>     3.1907     7.6529    80.3490 </r>
       <r>     3.2757     8.3551    81.0591 </r>
       <r>     3.3607    10.4515    81.9474 </r>
       <r>     3.4457    12.8830    83.0423 </r>
       <r>     3.5307    12.1503    84.0750 </r>
       <r>     3.6157     7.7328    84.7322 </r>
       <r>     3.7007     3.9131    85.0648 </r>
       <r>     3.7856     1.5984    85.2006 </r>
       <r>     3.8706     3.5735    85.5043 </r>
       <r>     3.9556     7.7272    86.1611 </r>
       <r>     4.0406     6.0119    86.6720 </r>
       <r>     4.1256     1.8617    86.8303 </r>
       <r>     4.2106     1.1565    86.9285 </r>
       <r>     4.2956     3.2048    87.2009 </r>
       <r>     4.3806     6.3445    87.7401 </r>
       <r>     4.4656     8.9035    88.4969 </r>
       <r>     4.5506     9.5613    89.3095 </r>
       <r>     4.6356     9.0228    90.0763 </r>
       <r>     4.7205     7.3003    90.6968 </r>
       <r>     4.8055     6.1583    91.2202 </r>
       <r>     4.8905     8.8450    91.9719 </r>
       <r>     4.9755     7.7104    92.6273 </r>
       <r>     5.0605     3.3990    92.9161 </r>
       <r>     5.1455     2.4744    93.1264 </r>
       <r>     5.2305     3.4371    93.4186 </r>
       <r>     5.3155     7.3773    94.0456 </r>
       <r>     5.4005     9.9292    94.8895 </r>
       <r>     5.4855     6.0464    95.4033 </r>
       <r>     5.5705     3.5537    95.7054 </r>
       <r>     5.6554     2.5097    95.9187 </r>
       <r>     5.7404     0.8578    95.9916 </r>
       <r>     5.8254     0.0960    95.9997 </r>
       <r>     5.9104     0.0030    96.0000 </r>
       <r>     5.9954     0.0000    96.0000 </r>
       <r>     6.0804     0.0000    96.0000 </r>
       <r>     6.1654     0.0000    96.0000 </r>
       <r>     6.2504     0.0000    96.0000 </r>
       <r>     6.3354     0.0000    96.0000 </r>
       <r>     6.4204     0.0000    96.0000 </r>
       <r>     6.5054     0.0000    96.0000 </r>
       <r>     6.5903     0.0000    96.0000 </r>
       <r>     6.6753     0.0000    96.0000 </r>
       <r>     6.7603     0.0000    96.0000 </r>
      </set>
     </set>
    </array>
   </total>
  </dos>
 </calculation>
 <structure name="finalpos" >
  <crystal>
   <varray name="basis" >
    <v>       6.08889219       1.63151375       0.00000000 </v>
    <v>      -4.45737844       4.45737844       0.00000000 </v>
    <v>     -21.00714007     -21.00714007      21.00714007 </v>
   </varray>
   <i name="volume">    722.91390052 </i>
   <varray name="rec_basis" >
    <v>       0.12952687       0.12952687       0.25905374 </v>
    <v>      -0.04741012       0.17693699       0.12952687 </v>
    <v>       0.00000000       0.00000000       0.04760286 </v>
   </varray>
  </crystal>
  <varray name="positions" >
   <v>       0.00000035       0.50000017       0.34686940 </v>
   <v>       0.00000035       0.50000017       0.46937388 </v>
   <v>       0.00000035       0.50000017       0.59187835 </v>
   <v>       0.00000035       0.50000017       0.71438283 </v>
   <v>       0.50000027       0.50000017       0.34686940 </v>
   <v>       0.50000027       0.00000010       0.34686940 </v>
   <v>       0.50000027       0.50000017       0.46937388 </v>
   <v>       0.50000027       0.00000010       0.46937388 </v>
   <v>       0.50000027       0.50000017       0.59187835 </v>
   <v>       0.50000027       0.00000010       0.59187835 </v>
   <v>       0.50000027       0.50000017       0.71438283 </v>
   <v>       0.50000027       0.00000010       0.71438283 </v>
   <v>       0.00000035       0.50000017       0.28561717 </v>
   <v>       0.00000035       0.50000017       0.40812165 </v>
   <v>       0.00000035       0.50000017       0.53062612 </v>
   <v>       0.00000035       0.50000017       0.65313060 </v>
   <v>       0.00000020       0.00000010       0.34686938 </v>
   <v>       0.00000020       0.00000010       0.46937386 </v>
   <v>       0.00000020       0.00000010       0.59187833 </v>
   <v>       0.00000020       0.00000010       0.71438281 </v>
  </varray>
 </structure>
</modeling>
