unknown system                          
           1
     6.088892    1.631514    0.000000
    -4.457378    4.457378    0.000000
   -21.007140  -21.007140   21.007140
   Na   O    Cl
    12     4     4
Direct configuration=     1
   0.00000035  0.50000017  0.34686940
   0.00000035  0.50000017  0.46937388
   0.00000035  0.50000017  0.59187835
   0.00000035  0.50000017  0.71438283
   0.50000027  0.50000017  0.34686940
   0.50000027  0.00000010  0.34686940
   0.50000027  0.50000017  0.46937388
   0.50000027  0.00000010  0.46937388
   0.50000027  0.50000017  0.59187835
   0.50000027  0.00000010  0.59187835
   0.50000027  0.50000017  0.71438283
   0.50000027  0.00000010  0.71438283
   0.00000035  0.50000017  0.28561717
   0.00000035  0.50000017  0.40812165
   0.00000035  0.50000017  0.53062612
   0.00000035  0.50000017  0.65313060
   0.00000020  0.00000010  0.34686938
   0.00000020  0.00000010  0.46937386
   0.00000020  0.00000010  0.59187833
   0.00000020  0.00000010  0.71438281
