  15  15   0   0
  0.3133435E+02  0.4457379E-09  0.6303685E-09  0.2365663E-08  0.5000000E-15
  1.000000000000000E-004
  CAR 
 unknown system                          
      5.12999919    -20.06944634  301      0.22671778      1.00000000
    -20.069  0.0000E+00  0.0000E+00
    -19.985  0.0000E+00  0.0000E+00
    -19.901  0.0000E+00  0.0000E+00
    -19.817  0.0000E+00  0.0000E+00
    -19.733  0.0000E+00  0.0000E+00
    -19.649  0.0000E+00  0.0000E+00
    -19.565  0.0000E+00  0.0000E+00
    -19.481  0.5140E-14  0.4318E-15
    -19.397  0.3567E-10  0.2997E-11
    -19.313  0.6539E-07  0.5496E-08
    -19.229  0.3111E-04  0.2618E-05
    -19.145  0.3930E-02  0.3327E-03
    -19.061  0.1377E+00  0.1190E-01
    -18.977  0.1466E+01  0.1351E+00
    -18.893  0.5635E+01  0.6084E+00
    -18.809  0.9168E+01  0.1378E+01
    -18.725  0.5993E+01  0.1882E+01
    -18.641  0.1319E+01  0.1993E+01
    -18.557  0.8599E-01  0.2000E+01
    -18.473  0.1545E-02  0.2000E+01
    -18.389  0.7346E-05  0.2000E+01
    -18.305  0.9014E-08  0.2000E+01
    -18.221  0.2810E-11  0.2000E+01
    -18.137  0.0000E+00  0.2000E+01
    -18.053  0.0000E+00  0.2000E+01
    -17.969  0.0000E+00  0.2000E+01
    -17.885  0.0000E+00  0.2000E+01
    -17.801  0.0000E+00  0.2000E+01
    -17.717  0.0000E+00  0.2000E+01
    -17.633  0.8224E-14  0.2000E+01
    -17.550  0.5642E-10  0.2000E+01
    -17.466  0.9683E-07  0.2000E+01
    -17.382  0.4264E-04  0.2000E+01
    -17.298  0.4976E-02  0.2000E+01
    -17.214  0.1636E+00  0.2014E+01
    -17.130  0.1689E+01  0.2156E+01
    -17.046  0.6321E+01  0.2687E+01
    -16.962  0.9336E+01  0.3471E+01
    -16.878  0.5227E+01  0.3910E+01
    -16.794  0.1006E+01  0.3995E+01
    -16.710  0.6099E-01  0.4000E+01
    -16.626  0.1085E-02  0.4000E+01
    -16.542  0.5351E-05  0.4000E+01
    -16.458  0.1417E-06  0.4000E+01
    -16.374  0.6570E-04  0.4000E+01
    -16.290  0.8604E-02  0.4001E+01
    -16.206  0.3107E+00  0.4027E+01
    -16.122  0.3186E+01  0.4294E+01
    -16.038  0.9529E+01  0.5095E+01
    -15.954  0.8427E+01  0.5803E+01
    -15.870  0.2185E+01  0.5986E+01
    -15.786  0.1612E+00  0.6000E+01
    -15.702  0.3263E-02  0.6000E+01
    -15.618  0.1752E-04  0.6000E+01
    -15.534  0.2435E-07  0.6000E+01
    -15.450  0.1133E-10  0.6000E+01
    -15.366  0.7337E-08  0.6000E+01
    -15.282  0.5228E-05  0.6000E+01
    -15.198  0.1025E-02  0.6000E+01
    -15.114  0.5839E-01  0.6005E+01
    -15.030  0.1020E+01  0.6091E+01
    -14.946  0.5675E+01  0.6567E+01
    -14.862  0.1018E+02  0.7423E+01
    -14.778  0.5806E+01  0.7910E+01
    -14.694  0.1014E+01  0.7996E+01
    -14.610  0.5161E-01  0.8000E+01
    -14.526  0.7300E-03  0.8000E+01
    -14.442  0.2758E-05  0.8000E+01
    -14.358  0.2707E-08  0.8000E+01
    -14.274  0.6767E-12  0.8000E+01
    -14.190  0.0000E+00  0.8000E+01
    -14.106  0.0000E+00  0.8000E+01
    -14.022  0.0000E+00  0.8000E+01
    -13.938  0.0000E+00  0.8000E+01
    -13.854  0.0000E+00  0.8000E+01
    -13.770  0.0000E+00  0.8000E+01
    -13.686  0.0000E+00  0.8000E+01
    -13.602  0.0000E+00  0.8000E+01
    -13.518  0.0000E+00  0.8000E+01
    -13.434  0.0000E+00  0.8000E+01
    -13.350  0.0000E+00  0.8000E+01
    -13.266  0.0000E+00  0.8000E+01
    -13.182  0.0000E+00  0.8000E+01
    -13.098  0.0000E+00  0.8000E+01
    -13.014  0.0000E+00  0.8000E+01
    -12.930  0.0000E+00  0.8000E+01
    -12.846  0.0000E+00  0.8000E+01
    -12.762  0.0000E+00  0.8000E+01
    -12.678  0.0000E+00  0.8000E+01
    -12.594  0.0000E+00  0.8000E+01
    -12.510  0.0000E+00  0.8000E+01
    -12.426  0.0000E+00  0.8000E+01
    -12.342  0.0000E+00  0.8000E+01
    -12.258  0.0000E+00  0.8000E+01
    -12.174  0.0000E+00  0.8000E+01
    -12.090  0.0000E+00  0.8000E+01
    -12.006  0.0000E+00  0.8000E+01
    -11.922  0.0000E+00  0.8000E+01
    -11.838  0.0000E+00  0.8000E+01
    -11.754  0.0000E+00  0.8000E+01
    -11.670  0.0000E+00  0.8000E+01
    -11.586  0.0000E+00  0.8000E+01
    -11.502  0.0000E+00  0.8000E+01
    -11.418  0.0000E+00  0.8000E+01
    -11.334  0.0000E+00  0.8000E+01
    -11.250  0.0000E+00  0.8000E+01
    -11.166  0.0000E+00  0.8000E+01
    -11.082  0.0000E+00  0.8000E+01
    -10.998  0.0000E+00  0.8000E+01
    -10.914  0.0000E+00  0.8000E+01
    -10.830  0.0000E+00  0.8000E+01
    -10.746  0.0000E+00  0.8000E+01
    -10.662  0.0000E+00  0.8000E+01
    -10.578  0.0000E+00  0.8000E+01
    -10.494  0.0000E+00  0.8000E+01
    -10.410  0.0000E+00  0.8000E+01
    -10.326  0.0000E+00  0.8000E+01
    -10.242  0.0000E+00  0.8000E+01
    -10.158  0.0000E+00  0.8000E+01
    -10.074  0.0000E+00  0.8000E+01
     -9.990  0.0000E+00  0.8000E+01
     -9.906  0.0000E+00  0.8000E+01
     -9.822  0.0000E+00  0.8000E+01
     -9.738  0.0000E+00  0.8000E+01
     -9.654  0.0000E+00  0.8000E+01
     -9.570  0.0000E+00  0.8000E+01
     -9.486  0.0000E+00  0.8000E+01
     -9.402  0.0000E+00  0.8000E+01
     -9.318  0.0000E+00  0.8000E+01
     -9.234  0.0000E+00  0.8000E+01
     -9.150  0.0000E+00  0.8000E+01
     -9.066  0.0000E+00  0.8000E+01
     -8.982  0.0000E+00  0.8000E+01
     -8.898  0.0000E+00  0.8000E+01
     -8.814  0.0000E+00  0.8000E+01
     -8.730  0.0000E+00  0.8000E+01
     -8.646  0.4406E-15  0.8000E+01
     -8.562  0.3716E-11  0.8000E+01
     -8.478  0.1170E-07  0.8000E+01
     -8.394  0.9468E-05  0.8000E+01
     -8.310  0.2004E-02  0.8000E+01
     -8.226  0.1134E+00  0.8010E+01
     -8.142  0.1765E+01  0.8158E+01
     -8.058  0.7793E+01  0.8813E+01
     -7.974  0.9992E+01  0.9652E+01
     -7.890  0.3736E+01  0.9966E+01
     -7.806  0.4700E+00  0.1001E+02
     -7.722  0.8455E+00  0.1008E+02
     -7.638  0.3388E+01  0.1036E+02
     -7.554  0.6013E+01  0.1087E+02
     -7.470  0.5116E+01  0.1130E+02
     -7.386  0.3339E+01  0.1158E+02
     -7.302  0.2953E+01  0.1182E+02
     -7.218  0.4319E+01  0.1219E+02
     -7.134  0.4549E+01  0.1257E+02
     -7.050  0.3055E+01  0.1283E+02
     -6.966  0.3706E+01  0.1314E+02
     -6.882  0.3734E+01  0.1345E+02
     -6.798  0.3925E+01  0.1378E+02
     -6.714  0.2212E+01  0.1397E+02
     -6.630  0.3849E+00  0.1400E+02
     -6.546  0.1870E-01  0.1400E+02
     -6.462  0.1078E-01  0.1400E+02
     -6.378  0.1801E+00  0.1402E+02
     -6.294  0.8494E+00  0.1409E+02
     -6.210  0.1194E+01  0.1419E+02
     -6.126  0.1359E+01  0.1430E+02
     -6.042  0.3819E+01  0.1462E+02
     -5.958  0.4643E+01  0.1501E+02
     -5.874  0.3169E+01  0.1528E+02
     -5.790  0.3407E+01  0.1557E+02
     -5.706  0.3389E+01  0.1585E+02
     -5.622  0.2848E+01  0.1609E+02
     -5.538  0.3147E+01  0.1635E+02
     -5.454  0.4226E+01  0.1671E+02
     -5.370  0.5032E+01  0.1713E+02
     -5.286  0.3351E+01  0.1741E+02
     -5.202  0.3578E+01  0.1771E+02
     -5.118  0.2734E+01  0.1794E+02
     -5.034  0.6415E+00  0.1800E+02
     -4.950  0.4187E-01  0.1800E+02
     -4.866  0.7344E-03  0.1800E+02
     -4.782  0.1598E-03  0.1800E+02
     -4.698  0.1231E-01  0.1800E+02
     -4.614  0.2605E+00  0.1802E+02
     -4.530  0.1577E+01  0.1816E+02
     -4.446  0.3083E+01  0.1841E+02
     -4.362  0.2772E+01  0.1865E+02
     -4.278  0.3868E+01  0.1897E+02
     -4.194  0.6818E+01  0.1954E+02
     -4.110  0.6734E+01  0.2011E+02
     -4.026  0.8685E+01  0.2084E+02
     -3.942  0.8613E+01  0.2156E+02
     -3.858  0.4119E+01  0.2191E+02
     -3.774  0.3911E+01  0.2224E+02
     -3.690  0.7216E+01  0.2284E+02
     -3.606  0.7115E+01  0.2344E+02
     -3.522  0.6400E+01  0.2398E+02
     -3.438  0.8988E+01  0.2473E+02
     -3.354  0.6493E+01  0.2528E+02
     -3.270  0.3886E+01  0.2561E+02
     -3.186  0.3344E+01  0.2589E+02
     -3.102  0.1209E+01  0.2599E+02
     -3.018  0.1322E+00  0.2600E+02
     -2.934  0.4162E-02  0.2600E+02
     -2.850  0.4284E-03  0.2600E+02
     -2.766  0.2403E-01  0.2600E+02
     -2.682  0.4008E+00  0.2604E+02
     -2.598  0.2000E+01  0.2620E+02
     -2.514  0.3822E+01  0.2652E+02
     -2.430  0.4824E+01  0.2693E+02
     -2.346  0.6148E+01  0.2745E+02
     -2.262  0.4840E+01  0.2785E+02
     -2.178  0.1588E+01  0.2799E+02
     -2.094  0.8722E+00  0.2806E+02
     -2.010  0.3993E+01  0.2840E+02
     -1.926  0.6992E+01  0.2898E+02
     -1.842  0.4659E+01  0.2937E+02
     -1.758  0.4365E+01  0.2974E+02
     -1.674  0.5853E+01  0.3023E+02
     -1.590  0.8367E+01  0.3093E+02
     -1.506  0.1569E+02  0.3225E+02
     -1.422  0.1784E+02  0.3375E+02
     -1.338  0.1456E+02  0.3497E+02
     -1.254  0.1884E+02  0.3656E+02
     -1.170  0.2316E+02  0.3850E+02
     -1.086  0.3080E+02  0.4109E+02
     -1.002  0.2625E+02  0.4329E+02
     -0.918  0.7795E+01  0.4395E+02
     -0.834  0.1514E+01  0.4408E+02
     -0.750  0.2864E+01  0.4432E+02
     -0.666  0.4577E+01  0.4470E+02
     -0.582  0.6835E+01  0.4527E+02
     -0.498  0.6487E+01  0.4582E+02
     -0.414  0.3268E+01  0.4609E+02
     -0.330  0.3553E+01  0.4639E+02
     -0.246  0.5995E+01  0.4690E+02
     -0.162  0.6852E+01  0.4747E+02
     -0.078  0.3290E+01  0.4775E+02
      0.006  0.1270E+01  0.4785E+02
      0.090  0.1182E+01  0.4795E+02
      0.174  0.4900E+00  0.4800E+02
      0.258  0.9203E-01  0.4800E+02
      0.342  0.7140E+00  0.4806E+02
      0.426  0.4272E+01  0.4842E+02
      0.510  0.8398E+01  0.4913E+02
      0.594  0.8369E+01  0.4983E+02
      0.678  0.7458E+01  0.5046E+02
      0.762  0.6367E+01  0.5099E+02
      0.846  0.3465E+01  0.5128E+02
      0.930  0.1641E+01  0.5142E+02
      1.014  0.4879E+01  0.5183E+02
      1.098  0.9126E+01  0.5260E+02
      1.182  0.8787E+01  0.5333E+02
      1.266  0.4498E+01  0.5371E+02
      1.350  0.2312E+01  0.5391E+02
      1.434  0.5863E+01  0.5440E+02
      1.518  0.8094E+01  0.5508E+02
      1.602  0.6644E+01  0.5564E+02
      1.686  0.3588E+01  0.5594E+02
      1.770  0.1127E+01  0.5603E+02
      1.854  0.1833E+01  0.5619E+02
      1.938  0.2309E+01  0.5638E+02
      2.022  0.2020E+01  0.5655E+02
      2.106  0.4762E+01  0.5695E+02
      2.190  0.6438E+01  0.5749E+02
      2.274  0.6103E+01  0.5800E+02
      2.358  0.6768E+01  0.5857E+02
      2.442  0.5010E+01  0.5899E+02
      2.526  0.3686E+01  0.5930E+02
      2.610  0.2380E+01  0.5950E+02
      2.694  0.8774E+00  0.5958E+02
      2.778  0.1576E+01  0.5971E+02
      2.862  0.2350E+01  0.5991E+02
      2.946  0.1292E+01  0.6002E+02
      3.030  0.1219E+01  0.6012E+02
      3.114  0.2477E+01  0.6033E+02
      3.198  0.6900E+01  0.6091E+02
      3.282  0.8926E+01  0.6165E+02
      3.366  0.3641E+01  0.6196E+02
      3.450  0.4513E+00  0.6200E+02
      3.534  0.2171E-01  0.6200E+02
      3.618  0.1439E+00  0.6201E+02
      3.702  0.1131E+01  0.6211E+02
      3.786  0.3017E+01  0.6236E+02
      3.870  0.5105E+01  0.6279E+02
      3.954  0.7146E+01  0.6339E+02
      4.038  0.5354E+01  0.6384E+02
      4.122  0.1714E+01  0.6398E+02
      4.206  0.1884E+00  0.6400E+02
      4.290  0.6040E-02  0.6400E+02
      4.374  0.5211E-04  0.6400E+02
      4.458  0.1165E-06  0.6400E+02
      4.542  0.6609E-10  0.6400E+02
      4.626  0.9399E-14  0.6400E+02
      4.710  0.0000E+00  0.6400E+02
      4.794  0.0000E+00  0.6400E+02
      4.878  0.0000E+00  0.6400E+02
      4.962  0.0000E+00  0.6400E+02
      5.046  0.0000E+00  0.6400E+02
      5.130  0.0000E+00  0.6400E+02
