   15   15    1    1
  0.3133435E+02  0.4457378E-09  0.6303685E-09  0.2365663E-08  0.5000000E-15
  1.000000000000000E-004
  CAR 
 unknown system                          
     48      4     32
 
  0.0000000E+00  0.0000000E+00  0.0000000E+00  0.1111111E+00
    1      -18.924017   1.000000
    2      -17.037503   1.000000
    3      -16.054606   1.000000
    4      -14.951561   1.000000
    5       -8.055407   1.000000
    6       -7.031854   1.000000
    7       -6.829828   1.000000
    8       -6.274503   1.000000
    9       -5.209599   1.000000
   10       -4.411983   1.000000
   11       -3.865375   1.000000
   12       -3.762357   1.000000
   13       -3.233810   1.000000
   14       -2.290633   1.000000
   15       -1.778097   1.000000
   16       -1.578737   1.000000
   17       -1.467475   1.000000
   18       -1.356404   1.000000
   19       -1.264256   1.000000
   20       -1.089705   1.000000
   21       -1.079985   1.000000
   22       -1.056627   1.000000
   23       -0.692775   1.000000
   24        0.032469   0.996994
   25        0.606498   0.000000
   26        1.007092   0.000000
   27        1.016647   0.000000
   28        1.057592   0.000000
   29        2.351171   0.000000
   30        2.447119   0.000000
   31        3.030917   0.000000
   32        3.984570   0.000000
 
  0.3333333E+00  0.0000000E+00  0.0000000E+00  0.2222222E+00
    1      -18.835165   1.000000
    2      -16.963100   1.000000
    3      -16.035383   1.000000
    4      -14.905025   1.000000
    5       -8.039557   1.000000
    6       -7.649145   1.000000
    7       -6.984675   1.000000
    8       -5.851968   1.000000
    9       -5.732797   1.000000
   10       -4.261282   1.000000
   11       -4.032962   1.000000
   12       -3.656132   1.000000
   13       -3.440422   1.000000
   14       -2.480396   1.000000
   15       -1.945845   1.000000
   16       -1.545908   1.000000
   17       -1.471048   1.000000
   18       -1.317598   1.000000
   19       -1.248099   1.000000
   20       -1.119544   1.000000
   21       -1.070311   1.000000
   22       -1.077509   1.000000
   23       -0.605267   1.000000
   24       -0.181756   1.000000
   25        0.447647   0.000891
   26        0.623150   0.000000
   27        1.461413   0.000000
   28        1.575613   0.000000
   29        1.868217   0.000000
   30        2.525294   0.000000
   31        3.248134   0.000000
   32        3.980330   0.000000
 
  0.0000000E+00  0.3333333E+00  0.0000000E+00  0.2222222E+00
    1      -18.903150   1.000000
    2      -17.075861   1.000000
    3      -16.068053   1.000000
    4      -14.919987   1.000000
    5       -8.054398   1.000000
    6       -7.394383   1.000000
    7       -6.829321   1.000000
    8       -5.575053   1.000000
    9       -5.216770   1.000000
   10       -4.497823   1.000000
   11       -4.044584   1.000000
   12       -3.517466   1.000000
   13       -3.265556   1.000000
   14       -2.581598   1.000000
   15       -1.752851   1.000000
   16       -1.680274   1.000000
   17       -1.407524   1.000000
   18       -1.459646   1.000000
   19       -1.249826   1.000000
   20       -1.091284   1.000000
   21       -1.077558   1.000000
   22       -1.088602   1.000000
   23       -0.763847   1.000000
   24       -0.363920   1.000000
   25        0.573268   0.000000
   26        1.045848   0.000000
   27        1.100111   0.000000
   28        1.588225   0.000000
   29        2.190990   0.000000
   30        2.806111   0.000000
   31        3.208218   0.000000
   32        3.753120   0.000000
 
  0.3333333E+00  0.3333333E+00  0.2220446E-15  0.4444444E+00
    1      -18.816453   1.000000
    2      -17.001137   1.000000
    3      -16.038495   1.000000
    4      -14.881848   1.000000
    5       -8.030915   1.000000
    6       -7.555892   1.000000
    7       -7.210984   1.000000
    8       -6.032653   1.000000
    9       -5.420306   1.000000
   10       -4.203620   1.000000
   11       -4.003422   1.000000
   12       -3.703459   1.000000
   13       -3.461297   1.000000
   14       -2.361443   1.000000
   15       -1.983149   1.000000
   16       -1.541919   1.000000
   17       -1.481951   1.000000
   18       -1.260689   1.000000
   19       -1.253984   1.000000
   20       -1.132472   1.000000
   21       -1.069608   1.000000
   22       -1.084415   1.000000
   23       -0.561351   1.000000
   24       -0.235322   1.000000
   25        0.468996   0.000306
   26        0.738125   0.000000
   27        1.165966   0.000000
   28        1.433087   0.000000
   29        2.104181   0.000000
   30        2.313915   0.000000
   31        3.210604   0.000000
   32        3.893464   0.000000
