 vasp.6.2.1 16May21 (build Dec 23 2021 00:35:04) complex                        
  
 executed on             LinuxIFC date 2023.03.08  11:52:39
 running on  128 total cores
 distrk:  each k-point on  128 cores,    1 groups
 distr:  one band on NCORE=  16 cores,    8 groups


--------------------------------------------------------------------------------------------------------


 INCAR:
   ENCUT = 400.000000
   KSPACING = 0.500000
   SIGMA = 0.100000
   EDIFF = 1.00e-08
   EDIFFG = -1.00e-02
   ALGO = Fast
   GGA = PE
   PREC = Normal
   IBRION = -1
   IDIPOL = 3
   ISIF = 3
   ISMEAR = 0
   ISPIN = 0
   LMAXMIX = 6
   NELM = 150
   NPAR = 8
   NSW = 0
   NWRITE = 1
   DIPOL = 0.2573 0.7427 0.5111
   KGAMMA = .TRUE.
   LASPH = .TRUE.
   LCHARG = .FALSE.
   LDIPOL = .TRUE.
   LWAVE = .FALSE.
   LREAL = AUTO

 POTCAR:    PAW_PBE Na 08Apr2002                  
 POTCAR:    PAW_PBE O 08Apr2002                   
 POTCAR:    PAW_PBE Cl 06Sep2000                  
 POTCAR:    PAW_PBE Na 08Apr2002                  
  local pseudopotential read in
  partial core-charges read in
  partial kinetic energy density read in
  atomic valenz-charges read in
  non local Contribution for L=           0  read in
    real space projection operators read in
  non local Contribution for L=           0  read in
    real space projection operators read in
  non local Contribution for L=           1  read in
    real space projection operators read in
    PAW grid and wavefunctions read in
 
   number of l-projection  operators is LMAX  =           3
   number of lm-projection operators is LMMAX =           5
 
 POTCAR:    PAW_PBE O 08Apr2002                   
  local pseudopotential read in
  partial core-charges read in
  partial kinetic energy density read in
  kinetic energy density of atom read in
  atomic valenz-charges read in
  non local Contribution for L=           0  read in
    real space projection operators read in
  non local Contribution for L=           0  read in
    real space projection operators read in
  non local Contribution for L=           1  read in
    real space projection operators read in
  non local Contribution for L=           1  read in
    real space projection operators read in
    PAW grid and wavefunctions read in
 
   number of l-projection  operators is LMAX  =           4
   number of lm-projection operators is LMMAX =           8
 
 POTCAR:    PAW_PBE Cl 06Sep2000                  
  local pseudopotential read in
  partial core-charges read in
  partial kinetic energy density read in
  atomic valenz-charges read in
  non local Contribution for L=           0  read in
    real space projection operators read in
  non local Contribution for L=           0  read in
    real space projection operators read in
  non local Contribution for L=           1  read in
    real space projection operators read in
  non local Contribution for L=           1  read in
    real space projection operators read in
    PAW grid and wavefunctions read in
 
   number of l-projection  operators is LMAX  =           4
   number of lm-projection operators is LMMAX =           8
 
 Optimization of the real space projectors (new method)

 maximal supplied QI-value         = 17.01
 optimisation between [QCUT,QGAM] = [ 10.20, 20.41] = [ 29.16,116.64] Ry 
 Optimized for a Real-space Cutoff    1.19 Angstroem

   l    n(q)    QCUT    max X(q) W(low)/X(q) W(high)/X(q)  e(spline) 
   0      7    10.205    45.123    0.22E-03    0.82E-03    0.11E-06
   0      7    10.205    12.364    0.17E-03    0.61E-03    0.75E-07
   1      7    10.205     8.302    0.37E-03    0.15E-03    0.27E-07
 Optimization of the real space projectors (new method)

 maximal supplied QI-value         = 24.76
 optimisation between [QCUT,QGAM] = [ 10.15, 20.30] = [ 28.85,115.39] Ry 
 Optimized for a Real-space Cutoff    1.38 Angstroem

   l    n(q)    QCUT    max X(q) W(low)/X(q) W(high)/X(q)  e(spline) 
   0      8    10.150    20.381    0.22E-03    0.32E-03    0.29E-06
   0      8    10.150    15.268    0.23E-03    0.35E-03    0.30E-06
   1      8    10.150     5.964    0.46E-03    0.53E-03    0.21E-06
   1      8    10.150     5.382    0.38E-03    0.45E-03    0.19E-06
 Optimization of the real space projectors (new method)

 maximal supplied QI-value         = 19.84
 optimisation between [QCUT,QGAM] = [ 10.12, 20.44] = [ 28.68,116.96] Ry 
 Optimized for a Real-space Cutoff    1.23 Angstroem

   l    n(q)    QCUT    max X(q) W(low)/X(q) W(high)/X(q)  e(spline) 
   0      7    10.119   168.010    0.54E-04    0.25E-03    0.48E-07
   0      7    10.119   164.674    0.53E-04    0.25E-03    0.47E-07
   1      7    10.119    69.222    0.45E-03    0.63E-03    0.13E-06
   1      7    10.119    56.786    0.45E-03    0.62E-03    0.13E-06
  PAW_PBE Na 08Apr2002                  :
 energy of atom  1       EATOM=   -5.1581
 kinetic energy error for atom=    0.0001 (will be added to EATOM!!)
  PAW_PBE O 08Apr2002                   :
 energy of atom  2       EATOM= -432.3788
 kinetic energy error for atom=    0.1156 (will be added to EATOM!!)
  PAW_PBE Cl 06Sep2000                  :
 energy of atom  3       EATOM= -409.7259
 kinetic energy error for atom=    0.0089 (will be added to EATOM!!)
 
 
 POSCAR: Na  O Cl
  positions in cartesian coordinates
  No initial velocities read in
 exchange correlation table for  LEXCH =        8
   RHO(1)=    0.500       N(1)  =     2000
   RHO(2)=  100.500       N(2)  =     4000
 


--------------------------------------------------------------------------------------------------------


 ion  position               nearest neighbor table
   1  0.500  0.500  0.359-   6 2.23   4 2.23  10 2.23   3 3.15  13 3.15  13 3.15   2 3.15   3 3.15
                             2 3.15   9 3.15
   2  0.000  0.500  0.453-   4 2.23  10 2.23  14 2.23   5 2.23   4 2.23  10 2.23   9 3.15   7 3.15
                            13 3.15   3 3.15  15 3.15   1 3.15  13 3.15   9 3.15   7 3.15   3 3.15
   3  0.500  1.000  0.359-   4 2.23  10 2.23   6 2.23  13 3.15   1 3.15  13 3.15   2 3.15   7 3.15
                             1 3.15   2 3.15   5 3.86   5 3.86
   4  0.500  0.500  0.453-  10 0.00   2 2.23   9 2.23   7 2.23  11 2.23   3 2.23   2 2.23   1 2.23
                            14 3.15   6 3.15   5 3.15  14 3.15   5 3.15   6 3.15
   5  0.000  0.500  0.547-   7 2.23  11 2.23  15 2.23   2 2.23   7 2.23  11 2.23   8 2.23  13 2.23
                             4 3.15  14 3.15   6 3.15  14 3.15   4 3.15   6 3.15   9 3.86   9 3.86
   6  0.500  1.000  0.453-   1 2.23  13 2.23   9 2.23   7 2.23  11 2.23   3 2.23  13 2.23  14 3.15
                             4 3.15  14 3.15   5 3.15   4 3.15   5 3.15   2 3.86   2 3.86   8 3.86
   7  0.500  0.500  0.547-  11 0.00   5 2.23  10 2.23   4 2.23   6 2.23   5 2.23  12 2.23  15 3.15
                             9 3.15   2 3.15  15 3.15   8 3.15  13 3.15   2 3.15   3 3.15   9 3.15
   8  0.000  0.500  0.641-  12 2.23  12 2.23   5 2.23  14 2.23  15 3.15   9 3.15   7 3.15  15 3.15
                             9 3.15   7 3.15  13 3.15   6 3.86   6 3.86
   9  0.500  1.000  0.547-   4 2.23  10 2.23  14 2.23   6 2.23  12 2.23  14 2.23   7 3.15   2 3.15
                            15 3.15   8 3.15   2 3.15  15 3.15   7 3.15   8 3.15   1 3.15  13 3.15
  10  0.500  0.500  0.453-   4 0.00   2 2.23   9 2.23   7 2.23   3 2.23   2 2.23   1 2.23
  11  0.500  0.500  0.547-   7 0.00   5 2.23   4 2.23   6 2.23   5 2.23
  12  0.500  0.500  0.641-   8 2.23   9 2.23   8 2.23   7 2.23
  13  0.000  1.000  0.453-   6 2.23  14 2.23   5 2.23   6 2.23   3 3.15   1 3.15   2 3.15   3 3.15
                             1 3.15   2 3.15   7 3.15   7 3.15   9 3.15   9 3.15   8 3.15
  14  0.000  1.000  0.547-   2 2.23   9 2.23  13 2.23  15 2.23   8 2.23   9 2.23   6 3.15   4 3.15
                             5 3.15   6 3.15   4 3.15   5 3.15
  15  0.000  1.000  0.641-   5 2.23  14 2.23   7 3.15   9 3.15   8 3.15   7 3.15   2 3.15   8 3.15
                             9 3.15
 
 -----------------------------------------------------------------------------
|                                                                             |
|           W    W    AA    RRRRR   N    N  II  N    N   GGGG   !!!           |
|           W    W   A  A   R    R  NN   N  II  NN   N  G    G  !!!           |
|           W    W  A    A  R    R  N N  N  II  N N  N  G       !!!           |
|           W WW W  AAAAAA  RRRRR   N  N N  II  N  N N  G  GGG   !            |
|           WW  WW  A    A  R   R   N   NN  II  N   NN  G    G                |
|           W    W  A    A  R    R  N    N  II  N    N   GGGG   !!!           |
|                                                                             |
|     The distance between some ions is very small. Please check the          |
|     nearest-neighbor list in the OUTCAR file.                               |
|     I HOPE YOU KNOW WHAT YOU ARE DOING!                                     |
|                                                                             |
 -----------------------------------------------------------------------------

  LATTYP: Found a simple monoclinic cell.
 ALAT       =     6.3036850495
 B/A-ratio  =     0.7071067812
 C/A-ratio  =     2.6761557890
 COS(beta)  =    -0.1294212703
  
  Lattice vectors:
  
 A1 = (   4.4573784450,  -4.4573784450,   0.0000000000)
 A2 = (   3.1518425248,   3.1518425248,   0.0000000000)
 A3 = (  -1.5438196294,   1.5438196294,  16.7277644909)


Analysis of symmetry for initial positions (statically):
=====================================================================
 Subroutine PRICEL returns:
 Original cell was already a primitive cell.
 

 Routine SETGRP: Setting up the symmetry group for a 
 simple monoclinic supercell.


 Subroutine GETGRP returns: Found  2 space group operations
 (whereof  2 operations were pure point group operations)
 out of a pool of  4 trial point group operations.


The static configuration has the point symmetry C_1h.


Analysis of symmetry for dynamics (positions and initial velocities):
=====================================================================
 Subroutine PRICEL returns:
 Original cell was already a primitive cell.
 

 Routine SETGRP: Setting up the symmetry group for a 
 simple monoclinic supercell.


 Subroutine GETGRP returns: Found  2 space group operations
 (whereof  2 operations were pure point group operations)
 out of a pool of  4 trial point group operations.


The dynamic configuration has the point symmetry C_1h.


 Subroutine INISYM returns: Found  2 space group operations
 (whereof  2 operations are pure point group operations),
 and found     1 'primitive' translations


----------------------------------------------------------------------------------------

                                     Primitive cell                                     

  volume of cell :     470.0152

  direct lattice vectors                    reciprocal lattice vectors
    -3.151842525 -3.151842525  0.000000000    -0.158637367 -0.158637367  0.000000000
     4.457378445 -4.457378445  0.000000000     0.112173558 -0.112173558 -0.158637367
    11.828315706-11.828315706 16.727764491     0.000000000  0.000000000  0.059780851

  length of vectors
     4.457378445  6.303685050 23.656631411     0.224347116  0.224347116  0.059780851

  position of ions in fractional coordinates (direct lattice)
     0.500000174  0.499999826  0.358685107
     0.000000100  0.499999826  0.452895036
     0.500000174  0.999999900  0.358685107
     0.500000174  0.499999826  0.452895036
     0.000000100  0.499999826  0.547104964
     0.500000174  0.999999900  0.452895036
     0.500000174  0.499999826  0.547104964
     0.000000100  0.499999826  0.641314893
     0.500000174  0.999999900  0.547104964
     0.500000174  0.499999826  0.452895036
     0.500000174  0.499999826  0.547104964
     0.500000174  0.499999826  0.641314893
     0.000000100  0.999999900  0.452895008
     0.000000100  0.999999900  0.547104936
     0.000000100  0.999999900  0.641314865

  ion indices of the primitive-cell ions
   primitive index   ion index
                 1           1
                 2           2
                 3           3
                 4           4
                 5           5
                 6           6
                 7           7
                 8           8
                 9           9
                10          10
                11          11
                12          12
                13          13
                14          14
                15          15

----------------------------------------------------------------------------------------

 
 -----------------------------------------------------------------------------
|                                                                             |
|           W    W    AA    RRRRR   N    N  II  N    N   GGGG   !!!           |
|           W    W   A  A   R    R  NN   N  II  NN   N  G    G  !!!           |
|           W    W  A    A  R    R  N N  N  II  N N  N  G       !!!           |
|           W WW W  AAAAAA  RRRRR   N  N N  II  N  N N  G  GGG   !            |
|           WW  WW  A    A  R   R   N   NN  II  N   NN  G    G                |
|           W    W  A    A  R    R  N    N  II  N    N   GGGG   !!!           |
|                                                                             |
|     The requested file  could not be found or opened for reading            |
|     k-point information. Automatic k-point generation is used as a          |
|     fallback, which may lead to unwanted results.                           |
|                                                                             |
 -----------------------------------------------------------------------------

 

Automatic generation of k-mesh.
 Grid dimensions derived from KSPACING:
 generate k-points for:    3    3    1

 Generating k-lattice:

  Cartesian coordinates                     Fractional coordinates (reciprocal lattice)
    -0.052879122 -0.052879122  0.000000000     0.333333333  0.000000000  0.000000000
     0.037391186 -0.037391186 -0.052879122     0.000000000  0.333333333  0.000000000
     0.000000000  0.000000000  0.059780851     0.000000000  0.000000000  1.000000000

  Length of vectors
     0.074782372  0.074782372  0.059780851

  Shift w.r.t. Gamma in fractional coordinates (k-lattice)
     0.000000000  0.000000000  0.000000000

 
 Subroutine IBZKPT returns following result:
 ===========================================
 
 Found      4 irreducible k-points:
 
 Following reciprocal coordinates:
            Coordinates               Weight
  0.000000  0.000000  0.000000      1.000000
  0.333333  0.000000  0.000000      2.000000
  0.000000  0.333333  0.000000      2.000000
  0.333333  0.333333  0.000000      4.000000
 
 Following cartesian coordinates:
            Coordinates               Weight
  0.000000  0.000000  0.000000      1.000000
 -0.052879 -0.052879  0.000000      2.000000
  0.037391 -0.037391 -0.052879      2.000000
 -0.015488 -0.090270 -0.052879      4.000000
 


--------------------------------------------------------------------------------------------------------




 Dimension of arrays:
   k-points           NKPTS =      4   k-points in BZ     NKDIM =      4   number of bands    NBANDS=     32
   number of dos      NEDOS =    301   number of ions     NIONS =     15
   non local maximal  LDIM  =      4   non local SUM 2l+1 LMDIM =      8
   total plane-waves  NPLWV =  92160
   max r-space proj   IRMAX =   2211   max aug-charges    IRDMAX=   9745
   dimension x,y,z NGX =    24 NGY =   32 NGZ =  120
   dimension x,y,z NGXF=    48 NGYF=   64 NGZF=  240
   support grid    NGXF=    48 NGYF=   64 NGZF=  240
   ions per type =               9   3   3
   NGX,Y,Z   is equivalent  to a cutoff of   8.95,  8.44,  8.43 a.u.
   NGXF,Y,Z  is equivalent  to a cutoff of  17.90, 16.88, 16.87 a.u.

 SYSTEM =  unknown system                          
 POSCAR =  Na  O Cl                                

 Startparameter for this run:
   NWRITE =      1    write-flag & timer
   PREC   = normal    normal or accurate (medium, high low for compatibility)
   ISTART =      0    job   : 0-new  1-cont  2-samecut
   ICHARG =      2    charge: 1-file 2-atom 10-const
   ISPIN  =      1    spin polarized calculation?
   LNONCOLLINEAR =      F non collinear calculations
   LSORBIT =      F    spin-orbit coupling
   INIWAV =      1    electr: 0-lowe 1-rand  2-diag
   LASPH  =      T    aspherical Exc in radial PAW
 Electronic Relaxation 1
   ENCUT  =  400.0 eV  29.40 Ry    5.42 a.u.   7.27 10.28 38.58*2*pi/ulx,y,z
   ENINI  =  400.0     initial cutoff
   ENAUG  =  605.4 eV  augmentation charge cutoff
   NELM   =    150;   NELMIN=  2; NELMDL= -5     # of ELM steps 
   EDIFF  = 0.1E-07   stopping-criterion for ELM
   LREAL  =      T    real-space projection
   NLSPLINE    = F    spline interpolate recip. space projectors
   LCOMPAT=      F    compatible to vasp.4.4
   GGA_COMPAT  = T    GGA compatible to vasp.4.4-vasp.4.6
   LMAXPAW     = -100 max onsite density
   LMAXMIX     =    6 max onsite mixed and CHGCAR
   VOSKOWN=      0    Vosko Wilk Nusair interpolation
   ROPT   =   -0.00050  -0.00050  -0.00050
 Ionic relaxation
   EDIFFG = -.1E-01   stopping-criterion for IOM
   NSW    =      0    number of steps for IOM
   NBLOCK =      1;   KBLOCK =      1    inner block; outer block 
   IBRION =     -1    ionic relax: 0-MD 1-quasi-New 2-CG
   NFREE  =      0    steps in history (QN), initial steepest desc. (CG)
   ISIF   =      3    stress and relaxation
   IWAVPR =     10    prediction:  0-non 1-charg 2-wave 3-comb
   ISYM   =      2    0-nonsym 1-usesym 2-fastsym
   LCORR  =      T    Harris-Foulkes like correction to forces

   POTIM  = 0.5000    time-step for ionic-motion
   TEIN   =    0.0    initial temperature
   TEBEG  =    0.0;   TEEND  =   0.0 temperature during run
   SMASS  =  -3.00    Nose mass-parameter (am)
   estimated Nose-frequenzy (Omega)   =  0.10E-29 period in steps = 0.13E+47 mass=  -0.454E-27a.u.
   SCALEE = 1.0000    scale energy and forces
   NPACO  =    256;   APACO  = 16.0  distance and # of slots for P.C.
   PSTRESS=    0.0 pullay stress

  Mass of Ions in am
   POMASS =  22.99 16.00 35.45
  Ionic Valenz
   ZVAL   =   1.00  6.00  7.00
  Atomic Wigner-Seitz radii
   RWIGS  =  -1.00 -1.00 -1.00
  virtual crystal weights 
   VCA    =   1.00  1.00  1.00
   NELECT =      48.0000    total number of electrons
   NUPDOWN=      -1.0000    fix difference up-down

 DOS related values:
   EMIN   =  10.00;   EMAX   =-10.00  energy-range for DOS
   EFERMI =   0.00
   ISMEAR =     0;   SIGMA  =   0.10  broadening in eV -4-tet -1-fermi 0-gaus

 Electronic relaxation 2 (details)
   IALGO  =     68    algorithm
   LDIAG  =      T    sub-space diagonalisation (order eigenvalues)
   LSUBROT=      F    optimize rotation matrix (better conditioning)
   TURBO    =      0    0=normal 1=particle mesh
   IRESTART =      0    0=no restart 2=restart with 2 vectors
   NREBOOT  =      0    no. of reboots
   NMIN     =      0    reboot dimension
   EREF     =   0.00    reference energy to select bands
   IMIX   =      4    mixing-type and parameters
     AMIX     =   0.40;   BMIX     =  1.00
     AMIX_MAG =   1.60;   BMIX_MAG =  1.00
     AMIN     =   0.10
     WC   =   100.;   INIMIX=   1;  MIXPRE=   1;  MAXMIX= -45

 Intra band minimization:
   WEIMIN = 0.0000     energy-eigenvalue tresh-hold
   EBREAK =  0.78E-10  absolut break condition
   DEPER  =   0.30     relativ break condition  

   TIME   =   0.40     timestep for ELM

  volume/ion in A,a.u.               =      31.33       211.45
  Fermi-wavevector in a.u.,A,eV,Ry     =   0.765217  1.446050  7.966987  0.585557
  Thomas-Fermi vector in A             =   1.865289
 
 Write flags
   LWAVE        =      F    write WAVECAR
   LDOWNSAMPLE  =      F    k-point downsampling of WAVECAR
   LCHARG       =      F    write CHGCAR
   LVTOT        =      F    write LOCPOT, total local potential
   LVHAR        =      F    write LOCPOT, Hartree potential only
   LELF         =      F    write electronic localiz. function (ELF)
   LORBIT       =      0    0 simple, 1 ext, 2 COOP (PROOUT), +10 PAW based schemes


 Dipole corrections
   LMONO  =      F    monopole corrections only (constant potential shift)
   LDIPOL =      T    correct potential (dipole corrections)
   IDIPOL =      3    1-x, 2-y, 3-z, 4-all directions 
   EPSILON=  1.0000000 bulk dielectric constant

 Exchange correlation treatment:
   GGA     =    PE    GGA type
   LEXCH   =     8    internal setting for exchange type
   VOSKOWN=      0    Vosko Wilk Nusair interpolation
   LHFCALC =     F    Hartree Fock is set to
   LHFONE  =     F    Hartree Fock one center treatment
   AEXX    =    0.0000 exact exchange contribution

 Linear response parameters
   LEPSILON=     F    determine dielectric tensor
   LRPA    =     F    only Hartree local field effects (RPA)
   LNABLA  =     F    use nabla operator in PAW spheres
   LVEL    =     F    velocity operator in full k-point grid
   LINTERFAST=   F  fast interpolation
   KINTER  =     0    interpolate to denser k-point grid
   CSHIFT  =0.1000    complex shift for real part using Kramers Kronig
   OMEGAMAX=  -1.0    maximum frequency
   DEG_THRESHOLD= 0.2000000E-02 threshold for treating states as degnerate
   RTIME   =   -0.100 relaxation time in fs
  (WPLASMAI=    0.000 imaginary part of plasma frequency in eV, 0.658/RTIME)
   DFIELD  = 0.0000000 0.0000000 0.0000000 field for delta impulse in time
 
 Orbital magnetization related:
   ORBITALMAG=     F  switch on orbital magnetization
   LCHIMAG   =     F  perturbation theory with respect to B field
   DQ        =  0.001000  dq finite difference perturbation B field
   LLRAUG    =     F  two centre corrections for induced B field



--------------------------------------------------------------------------------------------------------


 Static calculation
 charge density and potential will be updated during run
 non-spin polarized calculation
 RMM-DIIS sequential band-by-band and
  variant of blocked Davidson during initial phase
 perform sub-space diagonalisation
    before iterative eigenvector-optimisation
 modified Broyden-mixing scheme, WC =      100.0
 initial mixing is a Kerker type mixing with AMIX =  0.4000 and BMIX =      1.0000
 Hartree-type preconditioning will be used
 using additional bands            8
 real space projection scheme for non local part
 use partial core corrections
 calculate Harris-corrections to forces 
   (improved forces if not selfconsistent)
 use gradient corrections 
 use of overlap-Matrix (Vanderbilt PP)
 Gauss-broadening in eV      SIGMA  =   0.10


--------------------------------------------------------------------------------------------------------


  energy-cutoff  :      400.00
  volume of cell :      470.02
      direct lattice vectors                 reciprocal lattice vectors
    -3.151842525 -3.151842525  0.000000000    -0.158637367 -0.158637367  0.000000000
     4.457378445 -4.457378445  0.000000000     0.112173558 -0.112173558 -0.158637367
    11.828315706-11.828315706 16.727764491     0.000000000  0.000000000  0.059780851

  length of vectors
     4.457378445  6.303685050 23.656631411     0.224347116  0.224347116  0.059780851


 
 k-points in units of 2pi/SCALE and weight: read from INCAR                         
   0.00000000  0.00000000  0.00000000       0.111
  -0.05287912 -0.05287912  0.00000000       0.222
   0.03739119 -0.03739119 -0.05287912       0.222
  -0.01548794 -0.09027031 -0.05287912       0.444
 
 k-points in reciprocal lattice and weights: read from INCAR                         
   0.00000000  0.00000000  0.00000000       0.111
   0.33333333  0.00000000  0.00000000       0.222
   0.00000000  0.33333333  0.00000000       0.222
   0.33333333  0.33333333  0.00000000       0.444
 
 position of ions in fractional coordinates (direct lattice) 
   0.50000017  0.49999983  0.35868511
   0.00000010  0.49999983  0.45289504
   0.50000017  0.99999990  0.35868511
   0.50000017  0.49999983  0.45289504
   0.00000010  0.49999983  0.54710496
   0.50000017  0.99999990  0.45289504
   0.50000017  0.49999983  0.54710496
   0.00000010  0.49999983  0.64131489
   0.50000017  0.99999990  0.54710496
   0.50000017  0.49999983  0.45289504
   0.50000017  0.49999983  0.54710496
   0.50000017  0.49999983  0.64131489
   0.00000010  0.99999990  0.45289501
   0.00000010  0.99999990  0.54710494
   0.00000010  0.99999990  0.64131486
 
 position of ions in cartesian coordinates  (Angst):
   4.89540732 -8.04725094  6.00000000
   7.58567359 -7.58567422  7.57592150
   7.12409687-10.27594050  6.00000000
   6.00975210 -9.16159572  7.57592150
   8.70001837 -8.70001900  9.15184299
   8.23844165-11.39028528  7.57592150
   7.12409687-10.27594050  9.15184299
   9.81436315 -9.81436378 10.72776449
   9.35278643-12.50463005  9.15184299
   6.00975210 -9.16159572  7.57592150
   7.12409687-10.27594050  9.15184299
   8.23844165-11.39028528 10.72776449
   9.81436282 -9.81436345  7.57592103
  10.92870759-10.92870822  9.15184252
  12.04305237-12.04305300 10.72776402
 


--------------------------------------------------------------------------------------------------------


 k-point   1 :   0.0000 0.0000 0.0000  plane waves:    8547
 k-point   2 :   0.3333 0.0000 0.0000  plane waves:    8536
 k-point   3 :   0.0000 0.3333 0.0000  plane waves:    8542
 k-point   4 :   0.3333 0.3333 0.0000  plane waves:    8540

 maximum and minimum number of plane-waves per node :       547      519

 maximum number of plane-waves:      8547
 maximum index in each direction: 
   IXMAX=    7   IYMAX=   10   IZMAX=   38
   IXMIN=   -7   IYMIN=  -10   IZMIN=  -38


 real space projection operators:
  total allocation   :       1144.45 KBytes
  max/ min on nodes  :        101.13         50.86


 parallel 3D FFT for wavefunctions:
    minimum data exchange during FFTs selected (reduces bandwidth)
 parallel 3D FFT for charge:
    minimum data exchange during FFTs selected (reduces bandwidth)


 total amount of memory used by VASP MPI-rank0    32837. kBytes
=======================================================================

   base      :      30000. kBytes
   nonlr-proj:        683. kBytes
   fftplans  :        715. kBytes
   grid      :       1297. kBytes
   one-center:          3. kBytes
   wavefun   :        139. kBytes
 
     INWAV:  cpu time    0.0000: real time    0.0003
 Broyden mixing: mesh for mixing (old mesh)
   NGX = 15   NGY = 21   NGZ = 77
  (NGX  = 48   NGY  = 64   NGZ  =240)
  gives a total of  24255 points

 initial charge density was supplied:
 charge density of overlapping atoms calculated
 number of electron      48.0000000 magnetization 
 keeping initial charge density in first step


--------------------------------------------------------------------------------------------------------


 Maximum index for non-local projection operator          169
 Maximum index for augmentation-charges          576 (set IRDMAX)


--------------------------------------------------------------------------------------------------------


 First call to EWALD:  gamma=   0.228
 Maximum number of real-space cells 4x 4x 2
 Maximum number of reciprocal cells 2x 2x 7

    FEWALD:  cpu time    0.0017: real time    0.0017


--------------------------------------- Iteration      1(   1)  ---------------------------------------


    POTLOK:  cpu time    0.0137: real time    0.0162
    SETDIJ:  cpu time    0.0398: real time    0.0410
     EDDAV:  cpu time    0.1215: real time    0.1298
       DOS:  cpu time    0.0013: real time    0.0017
    --------------------------------------------
      LOOP:  cpu time    0.1764: real time    0.1887

 eigenvalue-minimisations  :   320
 total energy-change (2. order) : 0.1596122E+03  (-0.1697220E+04)
 number of electron      48.0000000 magnetization 
 augmentation part       48.0000000 magnetization 

 DIPCOR: dipole corrections for dipol
 direction  3 min pos     3,
 dipolmoment           0.001987     -0.001987      0.002811 electrons x Angstroem
 Tr[quadrupol]      -302.540153

 energy correction for charged system         0.000000 eV
 dipol+quadrupol energy correction            0.000002 eV
 added-field ion interaction          0.000000 eV  (added to PSCEN)


 Free energy of the ion-electron system (eV)
  ---------------------------------------------------
  alpha Z        PSCENC =        -0.49560439
  Ewald energy   TEWEN  =      3192.28128257
  -Hartree energ DENC   =     -5473.50576598
  -exchange      EXHF   =         0.00000000
  -V(xc)+E(xc)   XCENC  =      -203.52558722
  PAW double counting   =      2374.36041737    -2042.52119097
  entropy T*S    EENTRO =        -0.04002834
  eigenvalues    EBANDS =      -259.30426121
  atomic energy  EATOM  =      2572.36292992
  Solvation  Ediel_sol  =         0.00000000
  ---------------------------------------------------
  free energy    TOTEN  =       159.61219174 eV

  energy without entropy =      159.65222008  energy(sigma->0) =      159.63220591


--------------------------------------------------------------------------------------------------------




--------------------------------------- Iteration      1(   2)  ---------------------------------------


     EDDAV:  cpu time    0.2678: real time    0.3765
       DOS:  cpu time    0.0003: real time    0.0003
    --------------------------------------------
      LOOP:  cpu time    0.2681: real time    0.3768

 eigenvalue-minimisations  :   352
 total energy-change (2. order) :-0.3747973E+03  (-0.3624920E+03)
 number of electron      48.0000000 magnetization 
 augmentation part       48.0000000 magnetization 

 DIPCOR: dipole corrections for dipol
 direction  3 min pos     3,
 dipolmoment           0.001987     -0.001987      0.002811 electrons x Angstroem
 Tr[quadrupol]      -302.540153

 energy correction for charged system         0.000000 eV
 dipol+quadrupol energy correction            0.000002 eV
 added-field ion interaction          0.000000 eV  (added to PSCEN)


 Free energy of the ion-electron system (eV)
  ---------------------------------------------------
  alpha Z        PSCENC =        -0.49560439
  Ewald energy   TEWEN  =      3192.28128257
  -Hartree energ DENC   =     -5473.50576598
  -exchange      EXHF   =         0.00000000
  -V(xc)+E(xc)   XCENC  =      -203.52558722
  PAW double counting   =      2374.36041737    -2042.52119097
  entropy T*S    EENTRO =        -0.01842892
  eigenvalues    EBANDS =      -634.12314882
  atomic energy  EATOM  =      2572.36292992
  Solvation  Ediel_sol  =         0.00000000
  ---------------------------------------------------
  free energy    TOTEN  =      -215.18509645 eV

  energy without entropy =     -215.16666753  energy(sigma->0) =     -215.17588199


--------------------------------------------------------------------------------------------------------




--------------------------------------- Iteration      1(   3)  ---------------------------------------


     EDDAV:  cpu time    0.1158: real time    0.1163
       DOS:  cpu time    0.0003: real time    0.0003
    --------------------------------------------
      LOOP:  cpu time    0.1161: real time    0.1167

 eigenvalue-minimisations  :   448
 total energy-change (2. order) :-0.1111961E+03  (-0.1080672E+03)
 number of electron      48.0000000 magnetization 
 augmentation part       48.0000000 magnetization 

 DIPCOR: dipole corrections for dipol
 direction  3 min pos     3,
 dipolmoment           0.001987     -0.001987      0.002811 electrons x Angstroem
 Tr[quadrupol]      -302.540153

 energy correction for charged system         0.000000 eV
 dipol+quadrupol energy correction            0.000002 eV
 added-field ion interaction          0.000000 eV  (added to PSCEN)


 Free energy of the ion-electron system (eV)
  ---------------------------------------------------
  alpha Z        PSCENC =        -0.49560439
  Ewald energy   TEWEN  =      3192.28128257
  -Hartree energ DENC   =     -5473.50576598
  -exchange      EXHF   =         0.00000000
  -V(xc)+E(xc)   XCENC  =      -203.52558722
  PAW double counting   =      2374.36041737    -2042.52119097
  entropy T*S    EENTRO =        -0.00000000
  eigenvalues    EBANDS =      -745.33765560
  atomic energy  EATOM  =      2572.36292992
  Solvation  Ediel_sol  =         0.00000000
  ---------------------------------------------------
  free energy    TOTEN  =      -326.38117431 eV

  energy without entropy =     -326.38117431  energy(sigma->0) =     -326.38117431


--------------------------------------------------------------------------------------------------------




--------------------------------------- Iteration      1(   4)  ---------------------------------------


     EDDAV:  cpu time    0.0873: real time    0.0880
       DOS:  cpu time    0.0002: real time    0.0002
    --------------------------------------------
      LOOP:  cpu time    0.0874: real time    0.0881

 eigenvalue-minimisations  :   312
 total energy-change (2. order) :-0.5045642E+01  (-0.4977930E+01)
 number of electron      48.0000000 magnetization 
 augmentation part       48.0000000 magnetization 

 DIPCOR: dipole corrections for dipol
 direction  3 min pos     3,
 dipolmoment           0.001987     -0.001987      0.002811 electrons x Angstroem
 Tr[quadrupol]      -302.540153

 energy correction for charged system         0.000000 eV
 dipol+quadrupol energy correction            0.000002 eV
 added-field ion interaction          0.000000 eV  (added to PSCEN)


 Free energy of the ion-electron system (eV)
  ---------------------------------------------------
  alpha Z        PSCENC =        -0.49560439
  Ewald energy   TEWEN  =      3192.28128257
  -Hartree energ DENC   =     -5473.50576598
  -exchange      EXHF   =         0.00000000
  -V(xc)+E(xc)   XCENC  =      -203.52558722
  PAW double counting   =      2374.36041737    -2042.52119097
  entropy T*S    EENTRO =        -0.00000000
  eigenvalues    EBANDS =      -750.38329806
  atomic energy  EATOM  =      2572.36292992
  Solvation  Ediel_sol  =         0.00000000
  ---------------------------------------------------
  free energy    TOTEN  =      -331.42681677 eV

  energy without entropy =     -331.42681677  energy(sigma->0) =     -331.42681677


--------------------------------------------------------------------------------------------------------




--------------------------------------- Iteration      1(   5)  ---------------------------------------


     EDDAV:  cpu time    0.1017: real time    0.1025
       DOS:  cpu time    0.0002: real time    0.0002
    CHARGE:  cpu time    0.0124: real time    0.0134
    MIXING:  cpu time    0.0037: real time    0.0051
    --------------------------------------------
      LOOP:  cpu time    0.1181: real time    0.1212

 eigenvalue-minimisations  :   336
 total energy-change (2. order) :-0.1511753E+00  (-0.1510195E+00)
 number of electron      47.9999943 magnetization 
 augmentation part        3.6279799 magnetization 

 DIPCOR: dipole corrections for dipol
 direction  3 min pos     3,
 dipolmoment           0.001987     -0.001987      0.002811 electrons x Angstroem
 Tr[quadrupol]      -302.540153

 energy correction for charged system         0.000000 eV
 dipol+quadrupol energy correction            0.000002 eV
 added-field ion interaction          0.000000 eV  (added to PSCEN)


 Broyden mixing:
  rms(total) = 0.38566E+02    rms(broyden)= 0.38566E+02
  rms(prec ) = 0.38677E+02
  weight for this iteration     100.00

 Free energy of the ion-electron system (eV)
  ---------------------------------------------------
  alpha Z        PSCENC =        -0.49560439
  Ewald energy   TEWEN  =      3192.28128257
  -Hartree energ DENC   =     -5473.50576598
  -exchange      EXHF   =         0.00000000
  -V(xc)+E(xc)   XCENC  =      -203.52558722
  PAW double counting   =      2374.36041737    -2042.52119097
  entropy T*S    EENTRO =        -0.00000000
  eigenvalues    EBANDS =      -750.53447332
  atomic energy  EATOM  =      2572.36292992
  Solvation  Ediel_sol  =         0.00000000
  ---------------------------------------------------
  free energy    TOTEN  =      -331.57799203 eV

  energy without entropy =     -331.57799203  energy(sigma->0) =     -331.57799203


--------------------------------------------------------------------------------------------------------




--------------------------------------- Iteration      1(   6)  ---------------------------------------


    POTLOK:  cpu time    0.0103: real time    0.0103
    SETDIJ:  cpu time    0.0403: real time    0.0403
    EDDIAG:  cpu time    0.0289: real time    0.0303
  RMM-DIIS:  cpu time    0.0201: real time    0.0210
    ORTHCH:  cpu time    0.0032: real time    0.0032
       DOS:  cpu time    0.0002: real time    0.0002
    CHARGE:  cpu time    0.0097: real time    0.0097
    MIXING:  cpu time    0.0016: real time    0.0025
    --------------------------------------------
      LOOP:  cpu time    0.1143: real time    0.1175

 eigenvalue-minimisations  :   279
 total energy-change (2. order) : 0.1546041E+03  (-0.1138626E+02)
 number of electron      47.9999965 magnetization 
 augmentation part       -1.6622229 magnetization 

 DIPCOR: dipole corrections for dipol
 direction  3 min pos     3,
 dipolmoment           0.300748     -0.300748      0.425322 electrons x Angstroem
 Tr[quadrupol]      -306.840136

 energy correction for charged system         0.000000 eV
 dipol+quadrupol energy correction            0.034822 eV
 added-field ion interaction          0.000000 eV  (added to PSCEN)


 Broyden mixing:
  rms(total) = 0.16583E+02    rms(broyden)= 0.16583E+02
  rms(prec ) = 0.17193E+02
  weight for this iteration     100.00

 eigenvalues of (default mixing * dielectric matrix)
  average eigenvalue GAMMA=   0.7076
  0.7076

 Free energy of the ion-electron system (eV)
  ---------------------------------------------------
  alpha Z        PSCENC =        -0.46078377
  Ewald energy   TEWEN  =      3192.28128257
  -Hartree energ DENC   =     -5754.71428081
  -exchange      EXHF   =         0.00000000
  -V(xc)+E(xc)   XCENC  =      -191.27430121
  PAW double counting   =   1072439.19187083 -1072152.81808480
  entropy T*S    EENTRO =        -0.00000000
  eigenvalues    EBANDS =      -281.54253317
  atomic energy  EATOM  =      2572.36292992
  Solvation  Ediel_sol  =         0.00000000
  ---------------------------------------------------
  free energy    TOTEN  =      -176.97390044 eV

  energy without entropy =     -176.97390044  energy(sigma->0) =     -176.97390044


--------------------------------------------------------------------------------------------------------




--------------------------------------- Iteration      1(   7)  ---------------------------------------


    POTLOK:  cpu time    0.0103: real time    0.0103
    SETDIJ:  cpu time    0.0402: real time    0.0402
    EDDIAG:  cpu time    0.0268: real time    0.0270
  RMM-DIIS:  cpu time    0.0215: real time    0.0215
    ORTHCH:  cpu time    0.0020: real time    0.0020
       DOS:  cpu time    0.0004: real time    0.0004
    CHARGE:  cpu time    0.0095: real time    0.0095
    MIXING:  cpu time    0.0005: real time    0.0005
    --------------------------------------------
      LOOP:  cpu time    0.1113: real time    0.1115

 eigenvalue-minimisations  :   353
 total energy-change (2. order) :-0.3194348E+02  (-0.1068432E+02)
 number of electron      47.9999953 magnetization 
 augmentation part        2.1010324 magnetization 

 DIPCOR: dipole corrections for dipol
 direction  3 min pos     3,
 dipolmoment           0.146346     -0.146346      0.206964 electrons x Angstroem
 Tr[quadrupol]      -304.278351

 energy correction for charged system         0.000000 eV
 dipol+quadrupol energy correction            0.008245 eV
 added-field ion interaction          0.000000 eV  (added to PSCEN)


 Broyden mixing:
  rms(total) = 0.30712E+02    rms(broyden)= 0.30711E+02
  rms(prec ) = 0.30942E+02
  weight for this iteration     100.00

 eigenvalues of (default mixing * dielectric matrix)
  average eigenvalue GAMMA=   0.8942
  1.4537  0.3347

 Free energy of the ion-electron system (eV)
  ---------------------------------------------------
  alpha Z        PSCENC =        -0.48736051
  Ewald energy   TEWEN  =      3192.28128257
  -Hartree energ DENC   =     -5522.53012022
  -exchange      EXHF   =         0.00000000
  -V(xc)+E(xc)   XCENC  =      -199.00900560
  PAW double counting   =    581760.64083382  -581455.07035131
  entropy T*S    EENTRO =        -0.05486543
  eigenvalues    EBANDS =      -557.05072547
  atomic energy  EATOM  =      2572.36292992
  Solvation  Ediel_sol  =         0.00000000
  ---------------------------------------------------
  free energy    TOTEN  =      -208.91738223 eV

  energy without entropy =     -208.86251680  energy(sigma->0) =     -208.88994952


--------------------------------------------------------------------------------------------------------




--------------------------------------- Iteration      1(   8)  ---------------------------------------


    POTLOK:  cpu time    0.0104: real time    0.0104
    SETDIJ:  cpu time    0.0401: real time    0.0401
    EDDIAG:  cpu time    0.0268: real time    0.0272
  RMM-DIIS:  cpu time    0.0200: real time    0.0200
    ORTHCH:  cpu time    0.0021: real time    0.0021
       DOS:  cpu time    0.0002: real time    0.0002
    CHARGE:  cpu time    0.0092: real time    0.0092
    MIXING:  cpu time    0.0005: real time    0.0005
    --------------------------------------------
      LOOP:  cpu time    0.1093: real time    0.1096

 eigenvalue-minimisations  :   314
 total energy-change (2. order) : 0.5926994E+02  (-0.4863167E+01)
 number of electron      47.9999928 magnetization 
 augmentation part        3.3324490 magnetization 

 DIPCOR: dipole corrections for dipol
 direction  3 min pos     3,
 dipolmoment          -0.209736      0.209736     -0.296612 electrons x Angstroem
 Tr[quadrupol]      -306.596862

 energy correction for charged system         0.000000 eV
 dipol+quadrupol energy correction            0.016935 eV
 added-field ion interaction          0.000000 eV  (added to PSCEN)


 Broyden mixing:
  rms(total) = 0.22968E+02    rms(broyden)= 0.22967E+02
  rms(prec ) = 0.23171E+02
  weight for this iteration     100.00

 eigenvalues of (default mixing * dielectric matrix)
  average eigenvalue GAMMA=   0.9926
  2.1354  0.4212  0.4212

 Free energy of the ion-electron system (eV)
  ---------------------------------------------------
  alpha Z        PSCENC =        -0.47867046
  Ewald energy   TEWEN  =      3192.28128257
  -Hartree energ DENC   =     -5533.32456063
  -exchange      EXHF   =         0.00000000
  -V(xc)+E(xc)   XCENC  =      -198.26810437
  PAW double counting   =   1277036.51968077 -1276750.47948589
  entropy T*S    EENTRO =        -0.00000000
  eigenvalues    EBANDS =      -468.26051364
  atomic energy  EATOM  =      2572.36292992
  Solvation  Ediel_sol  =         0.00000000
  ---------------------------------------------------
  free energy    TOTEN  =      -149.64744173 eV

  energy without entropy =     -149.64744173  energy(sigma->0) =     -149.64744173


--------------------------------------------------------------------------------------------------------




--------------------------------------- Iteration      1(   9)  ---------------------------------------


    POTLOK:  cpu time    0.0104: real time    0.0104
    SETDIJ:  cpu time    0.0401: real time    0.0401
    EDDIAG:  cpu time    0.0268: real time    0.0268
  RMM-DIIS:  cpu time    0.0176: real time    0.0176
    ORTHCH:  cpu time    0.0020: real time    0.0020
       DOS:  cpu time    0.0004: real time    0.0004
    CHARGE:  cpu time    0.0094: real time    0.0094
    MIXING:  cpu time    0.0008: real time    0.0008
    --------------------------------------------
      LOOP:  cpu time    0.1074: real time    0.1074

 eigenvalue-minimisations  :   273
 total energy-change (2. order) : 0.6973907E+02  (-0.1157597E+01)
 number of electron      47.9999919 magnetization 
 augmentation part        3.6123739 magnetization 

 DIPCOR: dipole corrections for dipol
 direction  3 min pos     3,
 dipolmoment           0.017266     -0.017266      0.024418 electrons x Angstroem
 Tr[quadrupol]      -308.500154

 energy correction for charged system         0.000000 eV
 dipol+quadrupol energy correction            0.000115 eV
 added-field ion interaction          0.000000 eV  (added to PSCEN)


 Broyden mixing:
  rms(total) = 0.17606E+02    rms(broyden)= 0.17605E+02
  rms(prec ) = 0.17634E+02
  weight for this iteration     100.00

 eigenvalues of (default mixing * dielectric matrix)
  average eigenvalue GAMMA=   0.7051
  1.7598  0.4310  0.4310  0.1986

 Free energy of the ion-electron system (eV)
  ---------------------------------------------------
  alpha Z        PSCENC =        -0.49549114
  Ewald energy   TEWEN  =      3192.28128257
  -Hartree energ DENC   =     -5642.39496422
  -exchange      EXHF   =         0.00000000
  -V(xc)+E(xc)   XCENC  =      -192.07055213
  PAW double counting   =   2352879.26530204 -2352623.79693339
  entropy T*S    EENTRO =        -0.06487067
  eigenvalues    EBANDS =      -264.99507802
  atomic energy  EATOM  =      2572.36292992
  Solvation  Ediel_sol  =         0.00000000
  ---------------------------------------------------
  free energy    TOTEN  =       -79.90837504 eV

  energy without entropy =      -79.84350437  energy(sigma->0) =      -79.87593970


--------------------------------------------------------------------------------------------------------




--------------------------------------- Iteration      1(  10)  ---------------------------------------


    POTLOK:  cpu time    0.0103: real time    0.0103
    SETDIJ:  cpu time    0.0401: real time    0.0401
    EDDIAG:  cpu time    0.0266: real time    0.0267
  RMM-DIIS:  cpu time    0.0201: real time    0.0201
    ORTHCH:  cpu time    0.0021: real time    0.0021
       DOS:  cpu time    0.0004: real time    0.0004
    CHARGE:  cpu time    0.0100: real time    0.0100
    MIXING:  cpu time    0.0005: real time    0.0005
    --------------------------------------------
      LOOP:  cpu time    0.1100: real time    0.1101

 eigenvalue-minimisations  :   319
 total energy-change (2. order) :-0.6564704E+01  (-0.2917907E+00)
 number of electron      47.9999927 magnetization 
 augmentation part        2.0993827 magnetization 

 DIPCOR: dipole corrections for dipol
 direction  3 min pos     3,
 dipolmoment           0.082202     -0.082202      0.116251 electrons x Angstroem
 Tr[quadrupol]      -308.257499

 energy correction for charged system         0.000000 eV
 dipol+quadrupol energy correction            0.002601 eV
 added-field ion interaction          0.000000 eV  (added to PSCEN)


 Broyden mixing:
  rms(total) = 0.13981E+02    rms(broyden)= 0.13978E+02
  rms(prec ) = 0.14230E+02
  weight for this iteration     100.00

 eigenvalues of (default mixing * dielectric matrix)
  average eigenvalue GAMMA=   0.5585
  1.6175  0.4246  0.4246  0.2772  0.0486

 Free energy of the ion-electron system (eV)
  ---------------------------------------------------
  alpha Z        PSCENC =        -0.49300448
  Ewald energy   TEWEN  =      3192.28128257
  -Hartree energ DENC   =     -5642.34520031
  -exchange      EXHF   =         0.00000000
  -V(xc)+E(xc)   XCENC  =      -192.61877087
  PAW double counting   =   1870537.03564857 -1870278.77990565
  entropy T*S    EENTRO =        -0.03000962
  eigenvalues    EBANDS =      -273.88604935
  atomic energy  EATOM  =      2572.36292992
  Solvation  Ediel_sol  =         0.00000000
  ---------------------------------------------------
  free energy    TOTEN  =       -86.47307921 eV

  energy without entropy =      -86.44306959  energy(sigma->0) =      -86.45807440


--------------------------------------------------------------------------------------------------------




--------------------------------------- Iteration      1(  11)  ---------------------------------------


    POTLOK:  cpu time    0.0156: real time    0.0263
    SETDIJ:  cpu time    0.0402: real time    0.0402
    EDDIAG:  cpu time    0.0345: real time    0.0391
  RMM-DIIS:  cpu time    0.0223: real time    0.0280
    ORTHCH:  cpu time    0.0061: real time    0.0061
       DOS:  cpu time    0.0010: real time    0.0010
    CHARGE:  cpu time    0.0107: real time    0.0107
    MIXING:  cpu time    0.0004: real time    0.0004
    --------------------------------------------
      LOOP:  cpu time    0.1308: real time    0.1518

 eigenvalue-minimisations  :   353
 total energy-change (2. order) : 0.4000871E+01  (-0.8294422E-01)
 number of electron      47.9999907 magnetization 
 augmentation part        4.6780523 magnetization 

 DIPCOR: dipole corrections for dipol
 direction  3 min pos     3,
 dipolmoment           0.076614     -0.076614      0.108348 electrons x Angstroem
 Tr[quadrupol]      -308.155303

 energy correction for charged system         0.000000 eV
 dipol+quadrupol energy correction            0.002260 eV
 added-field ion interaction          0.000000 eV  (added to PSCEN)


 Broyden mixing:
  rms(total) = 0.14324E+02    rms(broyden)= 0.14323E+02
  rms(prec ) = 0.14340E+02
  weight for this iteration     100.00

 eigenvalues of (default mixing * dielectric matrix)
  average eigenvalue GAMMA=   0.5713
  1.7801  0.6097  0.3858  0.3858  0.2185  0.0478

 Free energy of the ion-electron system (eV)
  ---------------------------------------------------
  alpha Z        PSCENC =        -0.49334615
  Ewald energy   TEWEN  =      3192.28128257
  -Hartree energ DENC   =     -5639.32992049
  -exchange      EXHF   =         0.00000000
  -V(xc)+E(xc)   XCENC  =      -192.90223673
  PAW double counting   =   1689163.17594396 -1688903.89278413
  entropy T*S    EENTRO =        -0.02244593
  eigenvalues    EBANDS =      -273.65163173
  atomic energy  EATOM  =      2572.36292992
  Solvation  Ediel_sol  =         0.00000000
  ---------------------------------------------------
  free energy    TOTEN  =       -82.47220870 eV

  energy without entropy =      -82.44976277  energy(sigma->0) =      -82.46098574


--------------------------------------------------------------------------------------------------------




--------------------------------------- Iteration      1(  12)  ---------------------------------------


    POTLOK:  cpu time    0.0143: real time    0.0248
    SETDIJ:  cpu time    0.0398: real time    0.0399
    EDDIAG:  cpu time    0.0293: real time    0.0297
  RMM-DIIS:  cpu time    0.0199: real time    0.0199
    ORTHCH:  cpu time    0.0022: real time    0.0022
       DOS:  cpu time    0.0004: real time    0.0004
    CHARGE:  cpu time    0.0093: real time    0.0093
    MIXING:  cpu time    0.0005: real time    0.0005
    --------------------------------------------
      LOOP:  cpu time    0.1157: real time    0.1267

 eigenvalue-minimisations  :   313
 total energy-change (2. order) :-0.2745330E+01  (-0.3849396E-01)
 number of electron      47.9999901 magnetization 
 augmentation part        5.1158306 magnetization 

 DIPCOR: dipole corrections for dipol
 direction  3 min pos     3,
 dipolmoment           0.026241     -0.026241      0.037110 electrons x Angstroem
 Tr[quadrupol]      -308.178162

 energy correction for charged system         0.000000 eV
 dipol+quadrupol energy correction            0.000265 eV
 added-field ion interaction          0.000000 eV  (added to PSCEN)


 Broyden mixing:
  rms(total) = 0.12605E+02    rms(broyden)= 0.12605E+02
  rms(prec ) = 0.12662E+02
  weight for this iteration     100.00

 eigenvalues of (default mixing * dielectric matrix)
  average eigenvalue GAMMA=   0.5923
  1.8968  0.8162  0.3885  0.3885  0.3038  0.3038  0.0487

 Free energy of the ion-electron system (eV)
  ---------------------------------------------------
  alpha Z        PSCENC =        -0.49534081
  Ewald energy   TEWEN  =      3192.28128257
  -Hartree energ DENC   =     -5628.22014212
  -exchange      EXHF   =         0.00000000
  -V(xc)+E(xc)   XCENC  =      -193.05232576
  PAW double counting   =   1894974.23280779 -1894713.95944317
  entropy T*S    EENTRO =        -0.00163337
  eigenvalues    EBANDS =      -288.36567363
  atomic energy  EATOM  =      2572.36292992
  Solvation  Ediel_sol  =         0.00000000
  ---------------------------------------------------
  free energy    TOTEN  =       -85.21753858 eV

  energy without entropy =      -85.21590521  energy(sigma->0) =      -85.21672190


--------------------------------------------------------------------------------------------------------




--------------------------------------- Iteration      1(  13)  ---------------------------------------


    POTLOK:  cpu time    0.0117: real time    0.0136
    SETDIJ:  cpu time    0.0399: real time    0.0399
    EDDIAG:  cpu time    0.0261: real time    0.0269
  RMM-DIIS:  cpu time    0.0233: real time    0.0233
    ORTHCH:  cpu time    0.0020: real time    0.0020
       DOS:  cpu time    0.0003: real time    0.0003
    CHARGE:  cpu time    0.0089: real time    0.0089
    MIXING:  cpu time    0.0007: real time    0.0007
    --------------------------------------------
      LOOP:  cpu time    0.1129: real time    0.1156

 eigenvalue-minimisations  :   390
 total energy-change (2. order) :-0.5360787E+01  (-0.2414592E+00)
 number of electron      47.9999901 magnetization 
 augmentation part        5.1311387 magnetization 

 DIPCOR: dipole corrections for dipol
 direction  3 min pos     3,
 dipolmoment          -0.022151      0.022151     -0.031326 electrons x Angstroem
 Tr[quadrupol]      -308.088064

 energy correction for charged system         0.000000 eV
 dipol+quadrupol energy correction            0.000189 eV
 added-field ion interaction          0.000000 eV  (added to PSCEN)


 Broyden mixing:
  rms(total) = 0.77336E+01    rms(broyden)= 0.77335E+01
  rms(prec ) = 0.79198E+01
  weight for this iteration     100.00

 eigenvalues of (default mixing * dielectric matrix)
  average eigenvalue GAMMA=   0.6149
  2.2686  0.7793  0.3310  0.3310  0.3997  0.3997  0.3616  0.0485

 Free energy of the ion-electron system (eV)
  ---------------------------------------------------
  alpha Z        PSCENC =        -0.49541701
  Ewald energy   TEWEN  =      3192.28128257
  -Hartree energ DENC   =     -5614.42420813
  -exchange      EXHF   =         0.00000000
  -V(xc)+E(xc)   XCENC  =      -193.34351122
  PAW double counting   =   1899903.11261081 -1899643.55685022
  entropy T*S    EENTRO =        -0.00000367
  eigenvalues    EBANDS =      -306.51515886
  atomic energy  EATOM  =      2572.36292992
  Solvation  Ediel_sol  =         0.00000000
  ---------------------------------------------------
  free energy    TOTEN  =       -90.57832581 eV

  energy without entropy =      -90.57832214  energy(sigma->0) =      -90.57832398


--------------------------------------------------------------------------------------------------------




--------------------------------------- Iteration      1(  14)  ---------------------------------------


    POTLOK:  cpu time    0.0154: real time    0.0154
    SETDIJ:  cpu time    0.0400: real time    0.0400
    EDDIAG:  cpu time    0.0267: real time    0.0267
  RMM-DIIS:  cpu time    0.0231: real time    0.0231
    ORTHCH:  cpu time    0.0025: real time    0.0025
       DOS:  cpu time    0.0004: real time    0.0004
    CHARGE:  cpu time    0.0095: real time    0.0095
    MIXING:  cpu time    0.0006: real time    0.0006
    --------------------------------------------
      LOOP:  cpu time    0.1183: real time    0.1183

 eigenvalue-minimisations  :   374
 total energy-change (2. order) :-0.5010902E+01  (-0.1448540E+00)
 number of electron      47.9999907 magnetization 
 augmentation part        4.7663957 magnetization 

 DIPCOR: dipole corrections for dipol
 direction  3 min pos     3,
 dipolmoment          -0.110337      0.110337     -0.156040 electrons x Angstroem
 Tr[quadrupol]      -308.236008

 energy correction for charged system         0.000000 eV
 dipol+quadrupol energy correction            0.004687 eV
 added-field ion interaction          0.000000 eV  (added to PSCEN)


 Broyden mixing:
  rms(total) = 0.48559E+01    rms(broyden)= 0.48558E+01
  rms(prec ) = 0.52713E+01
  weight for this iteration     100.00

 eigenvalues of (default mixing * dielectric matrix)
  average eigenvalue GAMMA=   0.6509
  2.4064  0.6940  0.5939  0.5939  0.3761  0.3761  0.4720  0.2975  0.0486

 Free energy of the ion-electron system (eV)
  ---------------------------------------------------
  alpha Z        PSCENC =        -0.49091894
  Ewald energy   TEWEN  =      3192.28128257
  -Hartree energ DENC   =     -5606.78174657
  -exchange      EXHF   =         0.00000000
  -V(xc)+E(xc)   XCENC  =      -192.89265478
  PAW double counting   =   2524673.61796405 -2524409.93908357
  entropy T*S    EENTRO =        -0.00007220
  eigenvalues    EBANDS =      -323.74692850
  atomic energy  EATOM  =      2572.36292992
  Solvation  Ediel_sol  =         0.00000000
  ---------------------------------------------------
  free energy    TOTEN  =       -95.58922802 eV

  energy without entropy =      -95.58915582  energy(sigma->0) =      -95.58919192


--------------------------------------------------------------------------------------------------------




--------------------------------------- Iteration      1(  15)  ---------------------------------------


    POTLOK:  cpu time    0.0100: real time    0.0100
    SETDIJ:  cpu time    0.0402: real time    0.0402
    EDDIAG:  cpu time    0.0261: real time    0.0267
  RMM-DIIS:  cpu time    0.0233: real time    0.0233
    ORTHCH:  cpu time    0.0020: real time    0.0020
       DOS:  cpu time    0.0006: real time    0.0006
    CHARGE:  cpu time    0.0096: real time    0.0096
    MIXING:  cpu time    0.0007: real time    0.0007
    --------------------------------------------
      LOOP:  cpu time    0.1124: real time    0.1130

 eigenvalue-minimisations  :   373
 total energy-change (2. order) : 0.3973590E+01  (-0.1174363E+00)
 number of electron      47.9999910 magnetization 
 augmentation part        4.6889665 magnetization 

 DIPCOR: dipole corrections for dipol
 direction  3 min pos     3,
 dipolmoment          -0.126335      0.126335     -0.178665 electrons x Angstroem
 Tr[quadrupol]      -308.493394

 energy correction for charged system         0.000000 eV
 dipol+quadrupol energy correction            0.006145 eV
 added-field ion interaction          0.000000 eV  (added to PSCEN)


 Broyden mixing:
  rms(total) = 0.80372E+01    rms(broyden)= 0.80372E+01
  rms(prec ) = 0.82690E+01
  weight for this iteration     100.00

 eigenvalues of (default mixing * dielectric matrix)
  average eigenvalue GAMMA=   0.7196
  2.1888  0.6154  0.9401  0.9401  0.8733  0.5542  0.3780  0.3780  0.2800  0.0486

 Free energy of the ion-electron system (eV)
  ---------------------------------------------------
  alpha Z        PSCENC =        -0.48946124
  Ewald energy   TEWEN  =      3192.28128257
  -Hartree energ DENC   =     -5620.23380228
  -exchange      EXHF   =         0.00000000
  -V(xc)+E(xc)   XCENC  =      -191.55145750
  PAW double counting   =   3506835.56957461 -3506567.48572928
  entropy T*S    EENTRO =        -0.00014925
  eigenvalues    EBANDS =      -312.06882521
  atomic energy  EATOM  =      2572.36292992
  Solvation  Ediel_sol  =         0.00000000
  ---------------------------------------------------
  free energy    TOTEN  =       -91.61563765 eV

  energy without entropy =      -91.61548840  energy(sigma->0) =      -91.61556303


--------------------------------------------------------------------------------------------------------




--------------------------------------- Iteration      1(  16)  ---------------------------------------


    POTLOK:  cpu time    0.0103: real time    0.0103
    SETDIJ:  cpu time    0.0400: real time    0.0400
    EDDIAG:  cpu time    0.0251: real time    0.0266
  RMM-DIIS:  cpu time    0.0238: real time    0.0238
    ORTHCH:  cpu time    0.0023: real time    0.0023
       DOS:  cpu time    0.0004: real time    0.0004
    CHARGE:  cpu time    0.0095: real time    0.0095
    MIXING:  cpu time    0.0008: real time    0.0008
    --------------------------------------------
      LOOP:  cpu time    0.1123: real time    0.1138

 eigenvalue-minimisations  :   378
 total energy-change (2. order) :-0.6816143E+00  (-0.1289070E+00)
 number of electron      47.9999915 magnetization 
 augmentation part        4.3862503 magnetization 

 DIPCOR: dipole corrections for dipol
 direction  3 min pos     3,
 dipolmoment          -0.155756      0.155756     -0.220272 electrons x Angstroem
 Tr[quadrupol]      -308.531567

 energy correction for charged system         0.000000 eV
 dipol+quadrupol energy correction            0.009340 eV
 added-field ion interaction          0.000000 eV  (added to PSCEN)


 Broyden mixing:
  rms(total) = 0.88458E+01    rms(broyden)= 0.88457E+01
  rms(prec ) = 0.90720E+01
  weight for this iteration     100.00

 eigenvalues of (default mixing * dielectric matrix)
  average eigenvalue GAMMA=   0.7161
  2.1406  0.6531  1.0705  1.0705  0.8731  0.2781  0.3726  0.3726  0.5598  0.4376
  0.0486

 Free energy of the ion-electron system (eV)
  ---------------------------------------------------
  alpha Z        PSCENC =        -0.48626604
  Ewald energy   TEWEN  =      3192.28128257
  -Hartree energ DENC   =     -5624.64782416
  -exchange      EXHF   =         0.00000000
  -V(xc)+E(xc)   XCENC  =      -191.00166761
  PAW double counting   =   4588009.99526630 -4587732.68475185
  entropy T*S    EENTRO =        -0.00079401
  eigenvalues    EBANDS =      -318.11542702
  atomic energy  EATOM  =      2572.36292992
  Solvation  Ediel_sol  =         0.00000000
  ---------------------------------------------------
  free energy    TOTEN  =       -92.29725191 eV

  energy without entropy =      -92.29645790  energy(sigma->0) =      -92.29685490


--------------------------------------------------------------------------------------------------------




--------------------------------------- Iteration      1(  17)  ---------------------------------------


    POTLOK:  cpu time    0.0102: real time    0.0102
    SETDIJ:  cpu time    0.0400: real time    0.0400
    EDDIAG:  cpu time    0.0262: real time    0.0268
  RMM-DIIS:  cpu time    0.0224: real time    0.0224
    ORTHCH:  cpu time    0.0020: real time    0.0020
       DOS:  cpu time    0.0004: real time    0.0004
    CHARGE:  cpu time    0.0096: real time    0.0096
    MIXING:  cpu time    0.0008: real time    0.0008
    --------------------------------------------
      LOOP:  cpu time    0.1116: real time    0.1121

 eigenvalue-minimisations  :   387
 total energy-change (2. order) :-0.2575270E+00  (-0.1450919E-01)
 number of electron      47.9999917 magnetization 
 augmentation part        4.2663931 magnetization 

 DIPCOR: dipole corrections for dipol
 direction  3 min pos     3,
 dipolmoment          -0.165352      0.165352     -0.233844 electrons x Angstroem
 Tr[quadrupol]      -308.539251

 energy correction for charged system         0.000000 eV
 dipol+quadrupol energy correction            0.010526 eV
 added-field ion interaction          0.000000 eV  (added to PSCEN)


 Broyden mixing:
  rms(total) = 0.82852E+01    rms(broyden)= 0.82852E+01
  rms(prec ) = 0.85365E+01
  weight for this iteration     100.00

 eigenvalues of (default mixing * dielectric matrix)
  average eigenvalue GAMMA=   0.7142
  1.9690  1.1766  1.0194  1.0194  0.6657  0.6161  0.5081  0.5081  0.3806  0.3806
  0.2781  0.0486

 Free energy of the ion-electron system (eV)
  ---------------------------------------------------
  alpha Z        PSCENC =        -0.48507971
  Ewald energy   TEWEN  =      3192.28128257
  -Hartree energ DENC   =     -5624.95660261
  -exchange      EXHF   =         0.00000000
  -V(xc)+E(xc)   XCENC  =      -190.94715823
  PAW double counting   =   4811072.21810098 -4810793.34959827
  entropy T*S    EENTRO =        -0.00142682
  eigenvalues    EBANDS =      -319.67722675
  atomic energy  EATOM  =      2572.36292992
  Solvation  Ediel_sol  =         0.00000000
  ---------------------------------------------------
  free energy    TOTEN  =       -92.55477892 eV

  energy without entropy =      -92.55335210  energy(sigma->0) =      -92.55406551


--------------------------------------------------------------------------------------------------------




--------------------------------------- Iteration      1(  18)  ---------------------------------------


    POTLOK:  cpu time    0.0098: real time    0.0098
    SETDIJ:  cpu time    0.0401: real time    0.0401
    EDDIAG:  cpu time    0.0267: real time    0.0267
  RMM-DIIS:  cpu time    0.0233: real time    0.0233
    ORTHCH:  cpu time    0.0020: real time    0.0020
       DOS:  cpu time    0.0003: real time    0.0003
    CHARGE:  cpu time    0.0095: real time    0.0095
    MIXING:  cpu time    0.0008: real time    0.0008
    --------------------------------------------
      LOOP:  cpu time    0.1126: real time    0.1126

 eigenvalue-minimisations  :   375
 total energy-change (2. order) : 0.3440470E+01  (-0.2269043E-01)
 number of electron      47.9999917 magnetization 
 augmentation part        4.2418729 magnetization 

 DIPCOR: dipole corrections for dipol
 direction  3 min pos     3,
 dipolmoment          -0.184372      0.184372     -0.260742 electrons x Angstroem
 Tr[quadrupol]      -308.496570

 energy correction for charged system         0.000000 eV
 dipol+quadrupol energy correction            0.013087 eV
 added-field ion interaction          0.000000 eV  (added to PSCEN)


 Broyden mixing:
  rms(total) = 0.12030E+02    rms(broyden)= 0.12030E+02
  rms(prec ) = 0.12187E+02
  weight for this iteration     100.00

 eigenvalues of (default mixing * dielectric matrix)
  average eigenvalue GAMMA=   0.6734
  1.9696  1.1880  1.0386  1.0386  0.6690  0.6107  0.5321  0.5321  0.3803  0.3803
  0.2780  0.0486  0.0877

 Free energy of the ion-electron system (eV)
  ---------------------------------------------------
  alpha Z        PSCENC =        -0.48251888
  Ewald energy   TEWEN  =      3192.28128257
  -Hartree energ DENC   =     -5631.23204677
  -exchange      EXHF   =         0.00000000
  -V(xc)+E(xc)   XCENC  =      -190.61576223
  PAW double counting   =   5334043.17352228 -5333761.87905092
  entropy T*S    EENTRO =        -0.00012118
  eigenvalues    EBANDS =      -312.72254361
  atomic energy  EATOM  =      2572.36292992
  Solvation  Ediel_sol  =         0.00000000
  ---------------------------------------------------
  free energy    TOTEN  =       -89.11430883 eV

  energy without entropy =      -89.11418765  energy(sigma->0) =      -89.11424824


--------------------------------------------------------------------------------------------------------




--------------------------------------- Iteration      1(  19)  ---------------------------------------


    POTLOK:  cpu time    0.0098: real time    0.0098
    SETDIJ:  cpu time    0.0400: real time    0.0400
    EDDIAG:  cpu time    0.0888: real time    0.1409
  RMM-DIIS:  cpu time    0.0242: real time    0.0242
    ORTHCH:  cpu time    0.0024: real time    0.0025
       DOS:  cpu time    0.0003: real time    0.0004
    CHARGE:  cpu time    0.0092: real time    0.0092
    MIXING:  cpu time    0.0008: real time    0.0008
    --------------------------------------------
      LOOP:  cpu time    0.1755: real time    0.2279

 eigenvalue-minimisations  :   369
 total energy-change (2. order) : 0.3381597E+00  (-0.4086295E-02)
 number of electron      47.9999918 magnetization 
 augmentation part        4.1653572 magnetization 

 DIPCOR: dipole corrections for dipol
 direction  3 min pos     3,
 dipolmoment          -0.194446      0.194446     -0.274988 electrons x Angstroem
 Tr[quadrupol]      -308.502137

 energy correction for charged system         0.000000 eV
 dipol+quadrupol energy correction            0.014556 eV
 added-field ion interaction          0.000000 eV  (added to PSCEN)


 Broyden mixing:
  rms(total) = 0.11733E+02    rms(broyden)= 0.11733E+02
  rms(prec ) = 0.11897E+02
  weight for this iteration     100.00

 eigenvalues of (default mixing * dielectric matrix)
  average eigenvalue GAMMA=   0.9160
  2.3184  2.3184  2.0179  1.5073  0.6871  0.7486  0.7486  0.2779  0.5821  0.3765
  0.3765  0.4082  0.4082  0.0486

 Free energy of the ion-electron system (eV)
  ---------------------------------------------------
  alpha Z        PSCENC =        -0.48104975
  Ewald energy   TEWEN  =      3192.28128257
  -Hartree energ DENC   =     -5632.02173566
  -exchange      EXHF   =         0.00000000
  -V(xc)+E(xc)   XCENC  =      -190.53777139
  PAW double counting   =   5531555.60211254 -5531273.26331995
  entropy T*S    EENTRO =        -0.00034596
  eigenvalues    EBANDS =      -312.71825147
  atomic energy  EATOM  =      2572.36292992
  Solvation  Ediel_sol  =         0.00000000
  ---------------------------------------------------
  free energy    TOTEN  =       -88.77614916 eV

  energy without entropy =      -88.77580320  energy(sigma->0) =      -88.77597618


--------------------------------------------------------------------------------------------------------




--------------------------------------- Iteration      1(  20)  ---------------------------------------


    POTLOK:  cpu time    0.0100: real time    0.0100
    SETDIJ:  cpu time    0.0400: real time    0.0400
    EDDIAG:  cpu time    0.0262: real time    0.0276
  RMM-DIIS:  cpu time    0.0283: real time    0.0283
    ORTHCH:  cpu time    0.0027: real time    0.0027
       DOS:  cpu time    0.0004: real time    0.0004
    CHARGE:  cpu time    0.0092: real time    0.0092
    MIXING:  cpu time    0.0008: real time    0.0008
    --------------------------------------------
      LOOP:  cpu time    0.1176: real time    0.1190

 eigenvalue-minimisations  :   447
 total energy-change (2. order) : 0.3428423E+01  (-0.9230452E-01)
 number of electron      47.9999928 magnetization 
 augmentation part        3.3173799 magnetization 

 DIPCOR: dipole corrections for dipol
 direction  3 min pos     3,
 dipolmoment          -0.275502      0.275502     -0.389619 electrons x Angstroem
 Tr[quadrupol]      -308.551252

 energy correction for charged system         0.000000 eV
 dipol+quadrupol energy correction            0.029221 eV
 added-field ion interaction          0.000000 eV  (added to PSCEN)


 Broyden mixing:
  rms(total) = 0.11683E+02    rms(broyden)= 0.11683E+02
  rms(prec ) = 0.11864E+02
  weight for this iteration     100.00

 eigenvalues of (default mixing * dielectric matrix)
  average eigenvalue GAMMA=   0.8932
  2.3096  2.3096  1.7813  1.7813  0.6876  0.7777  0.7777  0.2779  0.5964  0.4924
  0.4924  0.3785  0.3785  0.0486  0.3081

 Free energy of the ion-electron system (eV)
  ---------------------------------------------------
  alpha Z        PSCENC =        -0.46638452
  Ewald energy   TEWEN  =      3192.28128257
  -Hartree energ DENC   =     -5640.76930549
  -exchange      EXHF   =         0.00000000
  -V(xc)+E(xc)   XCENC  =      -189.61217950
  PAW double counting   =   7508973.44145876 -7508681.38530780
  entropy T*S    EENTRO =        -0.02068285
  eigenvalues    EBANDS =      -311.17953768
  atomic energy  EATOM  =      2572.36292992
  Solvation  Ediel_sol  =         0.00000000
  ---------------------------------------------------
  free energy    TOTEN  =       -85.34772660 eV

  energy without entropy =      -85.32704374  energy(sigma->0) =      -85.33738517


--------------------------------------------------------------------------------------------------------




--------------------------------------- Iteration      1(  21)  ---------------------------------------


    POTLOK:  cpu time    0.0097: real time    0.0097
    SETDIJ:  cpu time    0.0401: real time    0.0401
    EDDIAG:  cpu time    0.0260: real time    0.0266
  RMM-DIIS:  cpu time    0.0314: real time    0.0314
    ORTHCH:  cpu time    0.0030: real time    0.0030
       DOS:  cpu time    0.0004: real time    0.0004
    CHARGE:  cpu time    0.0094: real time    0.0094
    MIXING:  cpu time    0.0009: real time    0.0009
    --------------------------------------------
      LOOP:  cpu time    0.1208: real time    0.1215

 eigenvalue-minimisations  :   426
 total energy-change (2. order) :-0.7248872E+00  (-0.1422108E-01)
 number of electron      47.9999927 magnetization 
 augmentation part        3.3683736 magnetization 

 DIPCOR: dipole corrections for dipol
 direction  3 min pos     3,
 dipolmoment          -0.278459      0.278459     -0.393801 electrons x Angstroem
 Tr[quadrupol]      -308.516942

 energy correction for charged system         0.000000 eV
 dipol+quadrupol energy correction            0.029852 eV
 added-field ion interaction          0.000000 eV  (added to PSCEN)


 Broyden mixing:
  rms(total) = 0.12814E+02    rms(broyden)= 0.12814E+02
  rms(prec ) = 0.12976E+02
  weight for this iteration     100.00

 eigenvalues of (default mixing * dielectric matrix)
  average eigenvalue GAMMA=   0.9039
  2.5513  2.5513  1.7993  1.7993  0.6882  0.8201  0.8201  0.2779  0.5961  0.5342
  0.5342  0.0486  0.3783  0.3783  0.3430  0.3430

 Free energy of the ion-electron system (eV)
  ---------------------------------------------------
  alpha Z        PSCENC =        -0.46575385
  Ewald energy   TEWEN  =      3192.28128257
  -Hartree energ DENC   =     -5638.07072644
  -exchange      EXHF   =         0.00000000
  -V(xc)+E(xc)   XCENC  =      -189.86320497
  PAW double counting   =   7335817.70435475 -7335525.57581213
  entropy T*S    EENTRO =        -0.01748451
  eigenvalues    EBANDS =      -314.42819915
  atomic energy  EATOM  =      2572.36292992
  Solvation  Ediel_sol  =         0.00000000
  ---------------------------------------------------
  free energy    TOTEN  =       -86.07261381 eV

  energy without entropy =      -86.05512930  energy(sigma->0) =      -86.06387156


--------------------------------------------------------------------------------------------------------




--------------------------------------- Iteration      1(  22)  ---------------------------------------


    POTLOK:  cpu time    0.0100: real time    0.0100
    SETDIJ:  cpu time    0.0400: real time    0.0400
    EDDIAG:  cpu time    0.0255: real time    0.0266
  RMM-DIIS:  cpu time    0.0287: real time    0.0287
    ORTHCH:  cpu time    0.0025: real time    0.0025
       DOS:  cpu time    0.0004: real time    0.0004
    CHARGE:  cpu time    0.0095: real time    0.0095
    MIXING:  cpu time    0.0009: real time    0.0009
    --------------------------------------------
      LOOP:  cpu time    0.1174: real time    0.1185

 eigenvalue-minimisations  :   441
 total energy-change (2. order) : 0.1902508E+01  (-0.5647245E-01)
 number of electron      47.9999970 magnetization 
 augmentation part        0.8119248 magnetization 

 DIPCOR: dipole corrections for dipol
 direction  3 min pos     3,
 dipolmoment          -0.332195      0.332195     -0.469795 electrons x Angstroem
 Tr[quadrupol]      -308.563088

 energy correction for charged system         0.000000 eV
 dipol+quadrupol energy correction            0.042485 eV
 added-field ion interaction          0.000000 eV  (added to PSCEN)


 Broyden mixing:
  rms(total) = 0.58557E+01    rms(broyden)= 0.58532E+01
  rms(prec ) = 0.62150E+01
  weight for this iteration     100.00

 eigenvalues of (default mixing * dielectric matrix)
  average eigenvalue GAMMA=   0.8583
  2.5830  2.5830  1.8013  1.8013  0.6882  0.8124  0.8124  0.2779  0.5943  0.5472
  0.5472  0.3771  0.3771  0.3547  0.3547  0.0486  0.0301

 Free energy of the ion-electron system (eV)
  ---------------------------------------------------
  alpha Z        PSCENC =        -0.45312084
  Ewald energy   TEWEN  =      3192.28128257
  -Hartree energ DENC   =     -5642.70395511
  -exchange      EXHF   =         0.00000000
  -V(xc)+E(xc)   XCENC  =      -189.37930862
  PAW double counting   =   8548814.39548379 -8548516.48655594
  entropy T*S    EENTRO =        -0.10057553
  eigenvalues    EBANDS =      -314.08628593
  atomic energy  EATOM  =      2572.36292992
  Solvation  Ediel_sol  =         0.00000000
  ---------------------------------------------------
  free energy    TOTEN  =       -84.17010570 eV

  energy without entropy =      -84.06953017  energy(sigma->0) =      -84.11981794


--------------------------------------------------------------------------------------------------------




--------------------------------------- Iteration      1(  23)  ---------------------------------------


    POTLOK:  cpu time    0.0099: real time    0.0099
    SETDIJ:  cpu time    0.0400: real time    0.0400
    EDDIAG:  cpu time    0.0268: real time    0.0268
  RMM-DIIS:  cpu time    0.0236: real time    0.0236
    ORTHCH:  cpu time    0.0020: real time    0.0020
       DOS:  cpu time    0.0004: real time    0.0004
    CHARGE:  cpu time    0.0098: real time    0.0098
    MIXING:  cpu time    0.0094: real time    0.0094
    --------------------------------------------
      LOOP:  cpu time    0.1219: real time    0.1219

 eigenvalue-minimisations  :   385
 total energy-change (2. order) :-0.1318165E+01  (-0.1144614E-01)
 number of electron      47.9999931 magnetization 
 augmentation part        2.7884670 magnetization 

 DIPCOR: dipole corrections for dipol
 direction  3 min pos     3,
 dipolmoment          -0.287158      0.287158     -0.406103 electrons x Angstroem
 Tr[quadrupol]      -308.571049

 energy correction for charged system         0.000000 eV
 dipol+quadrupol energy correction            0.031746 eV
 added-field ion interaction          0.000000 eV  (added to PSCEN)


 Broyden mixing:
  rms(total) = 0.10417E+02    rms(broyden)= 0.10416E+02
  rms(prec ) = 0.10627E+02
  weight for this iteration     100.00

 eigenvalues of (default mixing * dielectric matrix)
  average eigenvalue GAMMA=   0.8790
  2.3889  2.3889  1.8058  1.8058  0.6884  1.1267  1.1267  0.2779  0.7164  0.7164
  0.5440  0.3779  0.3779  0.4434  0.4434  0.3766  0.0486  0.1681

 Free energy of the ion-electron system (eV)
  ---------------------------------------------------
  alpha Z        PSCENC =        -0.46385958
  Ewald energy   TEWEN  =      3192.28128257
  -Hartree energ DENC   =     -5639.50609029
  -exchange      EXHF   =         0.00000000
  -V(xc)+E(xc)   XCENC  =      -189.71402705
  PAW double counting   =   7865606.83859330 -7865312.27922715
  entropy T*S    EENTRO =        -0.03430712
  eigenvalues    EBANDS =      -314.97356544
  atomic energy  EATOM  =      2572.36292992
  Solvation  Ediel_sol  =         0.00000000
  ---------------------------------------------------
  free energy    TOTEN  =       -85.48827084 eV

  energy without entropy =      -85.45396372  energy(sigma->0) =      -85.47111728


--------------------------------------------------------------------------------------------------------




--------------------------------------- Iteration      1(  24)  ---------------------------------------


    POTLOK:  cpu time    0.0103: real time    0.0103
    SETDIJ:  cpu time    0.0399: real time    0.0399
    EDDIAG:  cpu time    0.0259: real time    0.0266
  RMM-DIIS:  cpu time    0.0246: real time    0.0246
    ORTHCH:  cpu time    0.0020: real time    0.0020
       DOS:  cpu time    0.0004: real time    0.0004
    CHARGE:  cpu time    0.0093: real time    0.0093
    MIXING:  cpu time    0.0013: real time    0.0013
    --------------------------------------------
      LOOP:  cpu time    0.1137: real time    0.1144

 eigenvalue-minimisations  :   396
 total energy-change (2. order) : 0.5130606E-01  (-0.6789472E-02)
[...]
    EDDIAG:  cpu time    0.1072: real time    0.1720
  RMM-DIIS:  cpu time    0.0758: real time    0.0808
    ORTHCH:  cpu time    0.0024: real time    0.0069
       DOS:  cpu time    0.0011: real time    0.0011
    CHARGE:  cpu time    0.0138: real time    0.0138
    MIXING:  cpu time    0.0025: real time    0.0025
    --------------------------------------------
      LOOP:  cpu time    0.2523: real time    0.3266

 eigenvalue-minimisations  :   512
 total energy-change (2. order) :-0.1138973E+02  (-0.5186908E+00)
 number of electron      47.9999929 magnetization 
 augmentation part        1.8539792 magnetization 

 DIPCOR: dipole corrections for dipol
 direction  3 min pos     3,
 dipolmoment           0.391535     -0.391535      0.553715 electrons x Angstroem
 Tr[quadrupol]      -313.369287

 energy correction for charged system         0.000000 eV
 dipol+quadrupol energy correction            0.059019 eV
 added-field ion interaction          0.000000 eV  (added to PSCEN)


 Broyden mixing:
  rms(total) = 0.54780E+01    rms(broyden)= 0.54706E+01
  rms(prec ) = 0.62536E+01
  weight for this iteration     100.00

 eigenvalues of (default mixing * dielectric matrix)
  average eigenvalue GAMMA=   1.4239
  3.0877  3.0877  2.6587  2.6587  2.1161  2.1161  2.1821  2.1821  2.5487  2.5487
  2.5052  2.5052  2.4030  2.3547  2.3547  2.1833  1.6445  1.6445  1.7660  1.7660
  1.3670  1.3670  0.0152  0.0116  0.0116  1.0583  1.0583  0.1743  0.1743  0.8375
  0.8375  0.2460  0.5351  0.5351  0.3954  1.1694  1.1694  0.9654  0.9654  0.7659
  0.7659  0.6075  0.6075  0.6985

 Free energy of the ion-electron system (eV)
  ---------------------------------------------------
  alpha Z        PSCENC =        -0.43658684
  Ewald energy   TEWEN  =      3192.28128257
  -Hartree energ DENC   =     -5646.62713341
  -exchange      EXHF   =         0.00000000
  -V(xc)+E(xc)   XCENC  =      -192.01954132
  PAW double counting   =    175267.99061974  -175039.27793628
  entropy T*S    EENTRO =        -0.02398803
  eigenvalues    EBANDS =      -256.51563587
  atomic energy  EATOM  =      2572.36292992
  Solvation  Ediel_sol  =         0.00000000
  ---------------------------------------------------
  free energy    TOTEN  =      -102.26598954 eV

  energy without entropy =     -102.24200151  energy(sigma->0) =     -102.25399552


--------------------------------------------------------------------------------------------------------




--------------------------------------- Iteration      1( 150)  ---------------------------------------


    POTLOK:  cpu time    0.0122: real time    0.0235
    SETDIJ:  cpu time    0.0404: real time    0.0404
    EDDIAG:  cpu time    0.0319: real time    0.0335
  RMM-DIIS:  cpu time    0.0313: real time    0.0313
    ORTHCH:  cpu time    0.0022: real time    0.0022
       DOS:  cpu time    0.0003: real time    0.0003
    --------------------------------------------
      LOOP:  cpu time    0.1182: real time    0.1313

 eigenvalue-minimisations  :   512
 total energy-change (2. order) : 0.1599873E+02  (-0.6814680E+00)
 number of electron      47.9999929 magnetization 
 augmentation part        1.8539792 magnetization 

 DIPCOR: dipole corrections for dipol
 direction  3 min pos     3,
 dipolmoment           0.392207     -0.392207      0.554665 electrons x Angstroem
 Tr[quadrupol]      -313.525617

 energy correction for charged system         0.000000 eV
 dipol+quadrupol energy correction            0.059222 eV
 added-field ion interaction          0.000000 eV  (added to PSCEN)


 Free energy of the ion-electron system (eV)
  ---------------------------------------------------
  alpha Z        PSCENC =        -0.43638405
  Ewald energy   TEWEN  =      3192.28128257
  -Hartree energ DENC   =     -5627.68407023
  -exchange      EXHF   =         0.00000000
  -V(xc)+E(xc)   XCENC  =      -193.04834776
  PAW double counting   =    166411.31552517  -166180.78433939
  entropy T*S    EENTRO =        -0.00031007
  eigenvalues    EBANDS =      -260.27354626
  atomic energy  EATOM  =      2572.36292992
  Solvation  Ediel_sol  =         0.00000000
  ---------------------------------------------------
  free energy    TOTEN  =       -86.26726009 eV

  energy without entropy =      -86.26695002  energy(sigma->0) =      -86.26710506


--------------------------------------------------------------------------------------------------------




 average (electrostatic) potential at core
  the test charge radii are     1.1212  0.7215  0.9406
  (the norm of the test charge is              1.0000)
       1 -44.6975       2 -45.1290       3 -45.0094       4 -73.5313       5 -45.9553
       6 -46.0743       7 -73.2129       8 -43.1016       9 -44.2092      10-113.1489
      11-113.1905      12 -73.8569      13 -97.5762      14 -96.8170      15 -95.7152
 
 
 
 E-fermi :   0.2267     XC(G=0):  -4.7206     alpha+bet : -5.1962

 Fermi energy:         0.2267177834

 k-point     1 :       0.0000    0.0000    0.0000
  band No.  band energies     occupation 
      1     -18.9240      2.00000
      2     -17.0375      2.00000
      3     -16.0546      2.00000
      4     -14.9516      2.00000
      5      -8.0554      2.00000
      6      -7.0319      2.00000
      7      -6.8298      2.00000
      8      -6.2745      2.00000
      9      -5.2096      2.00000
     10      -4.4120      2.00000
     11      -3.8654      2.00000
     12      -3.7624      2.00000
     13      -3.2338      2.00000
     14      -2.2906      2.00000
     15      -1.7781      2.00000
     16      -1.5787      2.00000
     17      -1.4675      2.00000
     18      -1.3564      2.00000
     19      -1.2643      2.00000
     20      -1.0897      2.00000
     21      -1.0800      2.00000
     22      -1.0566      2.00000
     23      -0.6928      2.00000
     24       0.0325      1.99399
     25       0.6065      0.00000
     26       1.0071      0.00000
     27       1.0166      0.00000
     28       1.0576      0.00000
     29       2.3512      0.00000
     30       2.4471      0.00000
     31       3.0309      0.00000
     32       3.9846      0.00000

 k-point     2 :       0.3333    0.0000    0.0000
  band No.  band energies     occupation 
      1     -18.8352      2.00000
      2     -16.9631      2.00000
      3     -16.0354      2.00000
      4     -14.9050      2.00000
      5      -8.0396      2.00000
      6      -7.6491      2.00000
      7      -6.9847      2.00000
      8      -5.8520      2.00000
      9      -5.7328      2.00000
     10      -4.2613      2.00000
     11      -4.0330      2.00000
     12      -3.6561      2.00000
     13      -3.4404      2.00000
     14      -2.4804      2.00000
     15      -1.9458      2.00000
     16      -1.5459      2.00000
     17      -1.4710      2.00000
     18      -1.3176      2.00000
     19      -1.2481      2.00000
     20      -1.1195      2.00000
     21      -1.0703      2.00000
     22      -1.0775      2.00000
     23      -0.6053      2.00000
     24      -0.1818      2.00000
     25       0.4476      0.00178
     26       0.6232      0.00000
     27       1.4614      0.00000
     28       1.5756      0.00000
     29       1.8682      0.00000
     30       2.5253      0.00000
     31       3.2481      0.00000
     32       3.9803      0.00000

 k-point     3 :       0.0000    0.3333    0.0000
  band No.  band energies     occupation 
      1     -18.9031      2.00000
      2     -17.0759      2.00000
      3     -16.0681      2.00000
      4     -14.9200      2.00000
      5      -8.0544      2.00000
      6      -7.3944      2.00000
      7      -6.8293      2.00000
      8      -5.5751      2.00000
      9      -5.2168      2.00000
     10      -4.4978      2.00000
     11      -4.0446      2.00000
     12      -3.5175      2.00000
     13      -3.2656      2.00000
     14      -2.5816      2.00000
     15      -1.7529      2.00000
     16      -1.6803      2.00000
     17      -1.4075      2.00000
     18      -1.4596      2.00000
     19      -1.2498      2.00000
     20      -1.0913      2.00000
     21      -1.0776      2.00000
     22      -1.0886      2.00000
     23      -0.7638      2.00000
     24      -0.3639      2.00000
     25       0.5733      0.00000
     26       1.0458      0.00000
     27       1.1001      0.00000
     28       1.5882      0.00000
     29       2.1910      0.00000
     30       2.8061      0.00000
     31       3.2082      0.00000
     32       3.7531      0.00000

 k-point     4 :       0.3333    0.3333    0.0000
  band No.  band energies     occupation 
      1     -18.8165      2.00000
      2     -17.0011      2.00000
      3     -16.0385      2.00000
      4     -14.8818      2.00000
      5      -8.0309      2.00000
      6      -7.5559      2.00000
      7      -7.2110      2.00000
      8      -6.0327      2.00000
      9      -5.4203      2.00000
     10      -4.2036      2.00000
     11      -4.0034      2.00000
     12      -3.7035      2.00000
     13      -3.4613      2.00000
     14      -2.3614      2.00000
     15      -1.9831      2.00000
     16      -1.5419      2.00000
     17      -1.4820      2.00000
     18      -1.2607      2.00000
     19      -1.2540      2.00000
     20      -1.1325      2.00000
     21      -1.0696      2.00000
     22      -1.0844      2.00000
     23      -0.5614      2.00000
     24      -0.2353      2.00000
     25       0.4690      0.00061
     26       0.7381      0.00000
     27       1.1660      0.00000
     28       1.4331      0.00000
     29       2.1042      0.00000
     30       2.3139      0.00000
     31       3.2106      0.00000
     32       3.8935      0.00000


--------------------------------------------------------------------------------------------------------


 soft charge-density along one line, spin component           1
         0         1         2         3         4         5         6         7         8         9
 total charge-density along one line
 
 pseudopotential strength for first ion, spin component:           1
  1.439   6.495  -0.003   0.010   0.003
  6.495  28.819  -0.011   0.059   0.011
 -0.003  -0.011   5.082  -0.001  -0.003
  0.010   0.059  -0.001   5.084   0.001
  0.003   0.011  -0.003   0.001   5.082
 total augmentation occupancy for first ion, spin component:           1
  1.866   0.012  -0.039   0.199   0.039
  0.012   0.000  -0.000   0.001   0.000
 -0.039  -0.000   0.055  -0.007  -0.003
  0.199   0.001  -0.007   0.075   0.007
  0.039   0.000  -0.003   0.007   0.055


------------------------ aborting loop EDIFF was not reached (unconverged)  ----------------------------


 -----------------------------------------------------------------------------
|                                                                             |
|           W    W    AA    RRRRR   N    N  II  N    N   GGGG   !!!           |
|           W    W   A  A   R    R  NN   N  II  NN   N  G    G  !!!           |
|           W    W  A    A  R    R  N N  N  II  N N  N  G       !!!           |
|           W WW W  AAAAAA  RRRRR   N  N N  II  N  N N  G  GGG   !            |
|           WW  WW  A    A  R   R   N   NN  II  N   NN  G    G                |
|           W    W  A    A  R    R  N    N  II  N    N   GGGG   !!!           |
|                                                                             |
|     The electronic self-consistency was not achieved in the given           |
|     number of steps (NELM). The forces and other quantities evaluated       |
|     might not be reliable so examine the results carefully. If you find     |
|     spurious results, we suggest increasing NELM, if you were close to      |
|     convergence or switching to a different ALGO or adjusting the           |
|     density mixing parameters otherwise.                                    |
|                                                                             |
 -----------------------------------------------------------------------------

    CHARGE:  cpu time    0.0095: real time    0.0095
    FORLOC:  cpu time    0.0010: real time    0.0010
    FORNL :  cpu time    0.0141: real time    0.0163
    STRESS:  cpu time    0.0315: real time    0.0324
    FORCOR:  cpu time    0.0104: real time    0.0108
    FORHAR:  cpu time    0.0029: real time    0.0034
    MIXING:  cpu time    0.0027: real time    0.0027
    OFIELD:  cpu time    0.0004: real time    0.0011

  FORCE on cell =-STRESS in cart. coord.  units (eV):
  Direction    XX          YY          ZZ          XY          YZ          ZX
  --------------------------------------------------------------------------------------
  Alpha Z    -0.49561    -0.49561    -0.49561
  Ewald    4465.86563  4465.86563 -5783.90110  -101.93540  -138.18567   138.18565
  Hartree  5309.90581  5309.90575 -4573.81252   -84.45061  -104.47937   104.47936
  E(xc)    -197.79115  -197.79115  -196.99206    -0.76031    -0.86243     0.86243
  Local  -10465.21300-10465.21293  9684.82272   177.88525   228.01664  -228.01662
  n-local     7.23071     6.42388    -2.40778     7.12335     8.98563   -10.09519
  augment   106.26125   106.26124   107.39946    -1.49357    -0.96657     0.96760
  Kinetic   864.46788   865.78049   865.27285    -1.70848     0.76072    -0.97181
  Fock        0.00000     0.00000     0.00000     0.00000     0.00000     0.00000
  -------------------------------------------------------------------------------------
  Total      90.48441    90.48441    99.88597    -5.34022    -6.07104     6.07105
  in kB     308.44123   308.44123   340.48905   -18.20364   -20.69484    20.69484
  external pressure =      319.12 kB  Pullay stress =        0.00 kB


 VOLUME and BASIS-vectors are now :
 -----------------------------------------------------------------------------
  energy-cutoff  :      400.00
  volume of cell :      470.02
      direct lattice vectors                 reciprocal lattice vectors
    -3.151842525 -3.151842525  0.000000000    -0.158637367 -0.158637367  0.000000000
     4.457378445 -4.457378445  0.000000000     0.112173558 -0.112173558 -0.158637367
    11.828315706-11.828315706 16.727764491     0.000000000  0.000000000  0.059780851

  length of vectors
     4.457378445  6.303685050 23.656631411     0.224347116  0.224347116  0.059780851


 FORCES acting on ions
    electron-ion (+dipol)            ewald-force                    non-local-force                 convergence-correction
 -----------------------------------------------------------------------------------------------
   0.635E+01 -.635E+01 0.916E+02   -.364E+01 0.364E+01 -.892E+02   -.223E+01 0.223E+01 -.455E+01   -.860E+00 0.860E+00 -.175E+01
   -.297E+01 0.297E+01 0.638E+02   0.365E+01 -.365E+01 -.632E+02   0.780E+00 -.780E+00 -.235E+01   -.822E+00 0.822E+00 -.114E+01
   -.600E+01 0.600E+01 0.936E+02   0.364E+01 -.364E+01 -.905E+02   0.158E+01 -.158E+01 -.348E+01   0.860E+00 -.860E+00 -.251E+01
   0.649E+01 -.649E+01 0.619E+02   -.365E+01 0.365E+01 -.598E+02   0.149E+00 -.149E+00 -.728E+01   -.957E+00 0.957E+00 -.154E+01
   -.106E+01 0.106E+01 -.841E+01   -.225E-05 -.205E-04 0.774E+01   0.108E+01 -.108E+01 0.105E+01   0.417E+00 -.417E+00 0.521E+00
   -.581E+01 0.581E+01 0.644E+02   0.365E+01 -.365E+01 -.611E+02   0.133E+01 -.133E+01 -.135E+01   0.970E+00 -.970E+00 -.180E+01
   -.122E+01 0.122E+01 -.126E+02   0.770E-05 0.110E-05 0.983E+01   0.226E+01 -.226E+01 0.102E+02   0.602E+00 -.602E+00 0.757E+00
   0.348E+01 -.348E+01 -.743E+02   -.365E+01 0.365E+01 0.737E+02   -.126E+01 0.126E+01 0.366E+01   0.825E+00 -.825E+00 0.100E+01
   0.211E+00 -.211E+00 -.857E+01   0.376E-05 0.195E-04 0.983E+01   0.192E+00 -.192E+00 0.155E+01   -.600E+00 0.600E+00 0.766E+00
   0.353E+02 -.353E+02 0.369E+03   -.219E+02 0.219E+02 -.359E+03   -.155E+01 0.155E+01 0.524E+01   -.134E+02 0.134E+02 -.113E+02
   -.561E+01 0.561E+01 -.637E+02   0.462E-04 0.660E-05 0.590E+02   0.294E+00 -.294E+00 -.126E+01   0.548E+01 -.548E+01 0.665E+01
   -.297E+02 0.297E+02 -.436E+03   0.219E+02 -.219E+02 0.434E+03   -.498E+01 0.498E+01 -.152E+02   0.111E+02 -.111E+02 0.136E+02
   0.148E+02 -.148E+02 0.445E+03   -.256E+02 0.256E+02 -.433E+03   0.112E+01 -.112E+01 -.442E+01   0.900E+01 -.900E+01 -.112E+02
   0.201E+01 -.201E+01 -.588E+02   -.584E-04 0.580E-06 0.542E+02   0.138E+01 -.138E+01 0.491E+00   -.264E+01 0.264E+01 0.416E+01
   -.159E+02 0.159E+02 -.510E+03   0.256E+02 -.256E+02 0.507E+03   -.301E+00 0.301E+00 -.113E+01   -.867E+01 0.867E+01 0.802E+01
 -----------------------------------------------------------------------------------------------
   0.257E+00 -.250E+00 0.164E+02   0.711E-14 0.355E-14 0.000E+00   -.156E+00 0.156E+00 -.188E+02   0.129E+01 -.129E+01 0.428E+01
 
 
 POSITION                                       TOTAL-FORCE (eV/Angst)
 -----------------------------------------------------------------------------------
      4.89541     -8.04725      6.00000        -0.468902      0.468902     -3.978433
      7.58567     -7.58567      7.57592         0.550753     -0.550753     -2.984139
      7.12410    -10.27594      6.00000        -0.017523      0.017523     -2.985276
      6.00975     -9.16160      7.57592         1.933677     -1.933677     -6.839424
      8.70002     -8.70002      9.15184         0.347665     -0.347665      0.778992
      8.23844    -11.39029      7.57592         0.053423     -0.053423      0.019645
      7.12410    -10.27594      9.15184         1.547432     -1.547432      8.031030
      9.81436     -9.81436     10.72776        -0.696590      0.696590      3.984245
      9.35279    -12.50463      9.15184        -0.289092      0.289092      3.447808
      6.00975     -9.16160      7.57592        -1.739862      1.739862      4.131940
      7.12410    -10.27594      9.15184         0.065847     -0.065847      0.533556
      8.23844    -11.39029     10.72776        -1.742364      1.742364     -3.456933
      9.81436     -9.81436      7.57592        -0.782176      0.782176     -4.137579
     10.92871    -10.92871      9.15184         0.654840     -0.654840     -0.064763
     12.04305    -12.04305     10.72776         0.582873     -0.582873      3.519329
 -----------------------------------------------------------------------------------
    total drift:                                1.386748     -1.380590      1.843499


--------------------------------------------------------------------------------------------------------



  FREE ENERGIE OF THE ION-ELECTRON SYSTEM (eV)
  ---------------------------------------------------
  free  energy   TOTEN  =       -86.26726009 eV

  energy  without entropy=      -86.26695002  energy(sigma->0) =      -86.26710506
 


--------------------------------------------------------------------------------------------------------


    POTLOK:  cpu time    0.0521: real time    0.0523


--------------------------------------------------------------------------------------------------------


     LOOP+:  cpu time   19.5875: real time   20.5951
    4ORBIT:  cpu time    0.0000: real time    0.0000

 total amount of memory used by VASP MPI-rank0    32837. kBytes
=======================================================================

   base      :      30000. kBytes
   nonlr-proj:        683. kBytes
   fftplans  :        715. kBytes
   grid      :       1297. kBytes
   one-center:          3. kBytes
   wavefun   :        139. kBytes
 
  
  
 General timing and accounting informations for this job:
 ========================================================
  
                  Total CPU time used (sec):       20.096
                            User time (sec):       19.119
                          System time (sec):        0.978
                         Elapsed time (sec):       21.337
  
                   Maximum memory used (kb):      109328.
                   Average memory used (kb):          N/A
  
                          Minor page faults:        96187
                          Major page faults:            0
                 Voluntary context switches:         2457
