<?xml version="1.0" encoding="ISO-8859-1"?>
<modeling>
 <generator>
  <i name="program" type="string">vasp </i>
  <i name="version" type="string">6.2.1  </i>
  <i name="subversion" type="string">16May21 (build Dec 23 2021 00:35:04) complex                          parallel </i>
  <i name="platform" type="string">LinuxIFC </i>
  <i name="date" type="string">2023 03 08 </i>
  <i name="time" type="string">11:52:39 </i>
 </generator>
 <incar>
  <i type="string" name="PREC">Normal</i>
  <i type="string" name="ALGO">Fast</i>
  <i type="int" name="ISPIN">     0</i>
  <i type="int" name="NELM">   150</i>
  <i type="int" name="IBRION">    -1</i>
  <i name="EDIFF">      0.00000001</i>
  <i name="EDIFFG">     -0.01000000</i>
  <i type="int" name="NSW">     0</i>
  <i type="int" name="ISIF">     3</i>
  <i name="ENCUT">    400.00000000</i>
  <i type="string" name="LREAL">AUTO</i>
  <i type="int" name="ISMEAR">     0</i>
  <i name="SIGMA">      0.10000000</i>
  <i name="KSPACING">      0.50000000</i>
  <i type="logical" name="KGAMMA"> T  </i>
  <i type="int" name="NWRITE">     1</i>
  <i type="int" name="LMAXMIX">     6</i>
  <i type="logical" name="LWAVE"> F  </i>
  <i type="logical" name="LCHARG"> F  </i>
  <i type="logical" name="LASPH"> T  </i>
  <i type="string" name="GGA">PE</i>
  <i type="logical" name="LDIPOL"> T  </i>
  <i type="int" name="IDIPOL">     3</i>
  <v name="DIPOL">      0.25730000      0.74270000      0.51110000</v>
 </incar>
 <primitive_cell>
  <structure name="primitive_cell" >
   <crystal>
    <varray name="basis" >
     <v>      -3.15184252      -3.15184252       0.00000000 </v>
     <v>       4.45737844      -4.45737844       0.00000000 </v>
     <v>      11.82831571     -11.82831571      16.72776449 </v>
    </varray>
    <i name="volume">    470.01521889 </i>
    <varray name="rec_basis" >
     <v>      -0.15863737      -0.15863737       0.00000000 </v>
     <v>       0.11217356      -0.11217356      -0.15863737 </v>
     <v>       0.00000000       0.00000000       0.05978085 </v>
    </varray>
   </crystal>
   <varray name="positions" >
    <v>       0.50000017       0.49999983       0.35868511 </v>
    <v>       0.00000010       0.49999983       0.45289504 </v>
    <v>       0.50000017       0.99999990       0.35868511 </v>
    <v>       0.50000017       0.49999983       0.45289504 </v>
    <v>       0.00000010       0.49999983       0.54710496 </v>
    <v>       0.50000017       0.99999990       0.45289504 </v>
    <v>       0.50000017       0.49999983       0.54710496 </v>
    <v>       0.00000010       0.49999983       0.64131489 </v>
    <v>       0.50000017       0.99999990       0.54710496 </v>
    <v>       0.50000017       0.49999983       0.45289504 </v>
    <v>       0.50000017       0.49999983       0.54710496 </v>
    <v>       0.50000017       0.49999983       0.64131489 </v>
    <v>       0.00000010       0.99999990       0.45289501 </v>
    <v>       0.00000010       0.99999990       0.54710494 </v>
    <v>       0.00000010       0.99999990       0.64131486 </v>
   </varray>
  </structure>
  <varray name="primitive_index" >
   <v type="int" >        1 </v>
   <v type="int" >        2 </v>
   <v type="int" >        3 </v>
   <v type="int" >        4 </v>
   <v type="int" >        5 </v>
   <v type="int" >        6 </v>
   <v type="int" >        7 </v>
   <v type="int" >        8 </v>
   <v type="int" >        9 </v>
   <v type="int" >       10 </v>
   <v type="int" >       11 </v>
   <v type="int" >       12 </v>
   <v type="int" >       13 </v>
   <v type="int" >       14 </v>
   <v type="int" >       15 </v>
  </varray>
 </primitive_cell>
 <kpoints>
  <generation param="Gamma">
   <v type="int" name="divisions">       3        3        1 </v>
   <v name="usershift">      0.00000000       0.00000000       0.00000000 </v>
   <v name="genvec1">      0.33333333       0.00000000       0.00000000 </v>
   <v name="genvec2">      0.00000000       0.33333333       0.00000000 </v>
   <v name="genvec3">      0.00000000       0.00000000       1.00000000 </v>
   <v name="shift">      0.00000000       0.00000000       0.00000000 </v>
  </generation>
  <varray name="kpointlist" >
   <v>       0.00000000       0.00000000       0.00000000 </v>
   <v>       0.33333333       0.00000000       0.00000000 </v>
   <v>       0.00000000       0.33333333       0.00000000 </v>
   <v>       0.33333333       0.33333333       0.00000000 </v>
  </varray>
  <varray name="weights" >
   <v>       0.11111111 </v>
   <v>       0.22222222 </v>
   <v>       0.22222222 </v>
   <v>       0.44444444 </v>
  </varray>
 </kpoints>
 <parameters>
  <separator name="general" >
   <i type="string" name="SYSTEM">unknown system</i>
   <i type="logical" name="LCOMPAT"> F  </i>
  </separator>
  <separator name="electronic" >
   <i type="string" name="PREC">normal</i>
   <i name="ENMAX">    400.00000000</i>
   <i name="ENAUG">    605.39200000</i>
   <i name="EDIFF">      0.00000001</i>
   <i type="int" name="IALGO">    68</i>
   <i type="int" name="IWAVPR">    10</i>
   <i type="int" name="NBANDS">    32</i>
   <i type="int" name="NBANDSLOW">    -1</i>
   <i type="int" name="NBANDSHIGH">    -1</i>
   <i name="NELECT">     48.00000000</i>
   <i type="int" name="TURBO">     0</i>
   <i type="int" name="IRESTART">     0</i>
   <i type="int" name="NREBOOT">     0</i>
   <i type="int" name="NMIN">     0</i>
   <i name="EREF">      0.00000000</i>
   <separator name="electronic smearing" >
    <i type="int" name="ISMEAR">     0</i>
    <i name="SIGMA">      0.10000000</i>
    <i name="KSPACING">      0.50000000</i>
    <i type="logical" name="KGAMMA"> T  </i>
    <i type="logical" name="KBLOWUP"> T  </i>
   </separator>
   <separator name="electronic projectors" >
    <i type="logical" name="LREAL"> T  </i>
    <v name="ROPT">     -0.00050000     -0.00050000     -0.00050000</v>
    <i type="int" name="LMAXPAW">  -100</i>
    <i type="int" name="LMAXMIX">     6</i>
    <i type="logical" name="NLSPLINE"> F  </i>
   </separator>
   <separator name="electronic startup" >
    <i type="int" name="ISTART">     0</i>
    <i type="int" name="ICHARG">     2</i>
    <i type="int" name="INIWAV">     1</i>
   </separator>
   <separator name="electronic spin" >
    <i type="int" name="ISPIN">     1</i>
    <i type="logical" name="LNONCOLLINEAR"> F  </i>
    <v name="MAGMOM">      1.00000000      1.00000000      1.00000000      1.00000000      1.00000000      1.00000000      1.00000000      1.00000000      1.00000000      1.00000000      1.00000000      1.00000000      1.00000000      1.00000000      1.00000000</v>
    <i name="NUPDOWN">     -1.00000000</i>
    <i type="logical" name="LSORBIT"> F  </i>
    <v name="SAXIS">      0.00000000      0.00000000      1.00000000</v>
    <i type="logical" name="LSPIRAL"> F  </i>
    <v name="QSPIRAL">      0.00000000      0.00000000      0.00000000</v>
    <i type="logical" name="LZEROZ"> F  </i>
   </separator>
   <separator name="electronic exchange-correlation" >
    <i type="logical" name="LASPH"> T  </i>
    <i type="logical" name="LMETAGGA"> F  </i>
   </separator>
   <separator name="electronic convergence" >
    <i type="int" name="NELM">   150</i>
    <i type="int" name="NELMDL">    -5</i>
    <i type="int" name="NELMIN">     2</i>
    <i name="ENINI">    400.00000000</i>
    <separator name="electronic convergence detail" >
     <i type="logical" name="LDIAG"> T  </i>
     <i type="logical" name="LSUBROT"> F  </i>
     <i name="WEIMIN">      0.00000000</i>
     <i name="EBREAK">      0.00000000</i>
     <i name="DEPER">      0.30000000</i>
     <i type="int" name="NRMM">     4</i>
     <i name="TIME">      0.40000000</i>
    </separator>
   </separator>
   <separator name="electronic mixer" >
    <i name="AMIX">      0.40000000</i>
    <i name="BMIX">      1.00000000</i>
    <i name="AMIN">      0.10000000</i>
    <i name="AMIX_MAG">      1.60000000</i>
    <i name="BMIX_MAG">      1.00000000</i>
    <separator name="electronic mixer details" >
     <i type="int" name="IMIX">     4</i>
     <i type="logical" name="MIXFIRST"> F  </i>
     <i type="int" name="MAXMIX">   -45</i>
     <i name="WC">    100.00000000</i>
     <i type="int" name="INIMIX">     1</i>
     <i type="int" name="MIXPRE">     1</i>
     <i type="int" name="MREMOVE">     5</i>
    </separator>
   </separator>
   <separator name="electronic dipolcorrection" >
    <i type="logical" name="LDIPOL"> T  </i>
    <i type="logical" name="LMONO"> F  </i>
    <i type="int" name="IDIPOL">     3</i>
    <i name="EPSILON">      1.00000000</i>
    <v name="DIPOL">      0.25730000      0.74270000      0.51110000</v>
    <i name="EFIELD">      0.00000000</i>
   </separator>
  </separator>
  <separator name="grids" >
   <i type="int" name="NGX">    24</i>
   <i type="int" name="NGY">    32</i>
   <i type="int" name="NGZ">   120</i>
   <i type="int" name="NGXF">    48</i>
   <i type="int" name="NGYF">    64</i>
   <i type="int" name="NGZF">   240</i>
   <i type="logical" name="ADDGRID"> F  </i>
  </separator>
  <separator name="ionic" >
   <i type="int" name="NSW">     0</i>
   <i type="int" name="IBRION">    -1</i>
   <i type="int" name="MDALGO">     0</i>
   <i type="int" name="ISIF">     3</i>
   <i name="PSTRESS">      0.00000000</i>
   <i name="EDIFFG">     -0.01000000</i>
   <i type="int" name="NFREE">     0</i>
   <i name="POTIM">      0.50000000</i>
   <i name="SMASS">     -3.00000000</i>
   <i name="SCALEE">      1.00000000</i>
  </separator>
  <separator name="ionic md" >
   <i name="TEBEG">      0.00010000</i>
   <i name="TEEND">      0.00010000</i>
   <i type="int" name="NBLOCK">     1</i>
   <i type="int" name="KBLOCK">     1</i>
   <i type="int" name="NPACO">   256</i>
   <i name="APACO">     16.00000000</i>
  </separator>
  <separator name="symmetry" >
   <i type="int" name="ISYM">     2</i>
   <i name="SYMPREC">      0.00001000</i>
  </separator>
  <separator name="dos" >
   <i type="int" name="LORBIT">     0</i>
   <v name="RWIGS">     -1.00000000     -1.00000000     -1.00000000</v>
   <i type="int" name="NEDOS">   301</i>
   <i name="EMIN">     10.00000000</i>
   <i name="EMAX">    -10.00000000</i>
   <i name="EFERMI">      0.00000000</i>
  </separator>
  <separator name="writing" >
   <i type="int" name="NWRITE">     1</i>
   <i type="logical" name="LWAVE"> F  </i>
   <i type="logical" name="LDOWNSAMPLE"> F  </i>
   <i type="logical" name="LCHARG"> F  </i>
   <i type="logical" name="LPARD"> F  </i>
   <i type="logical" name="LVTOT"> F  </i>
   <i type="logical" name="LVHAR"> F  </i>
   <i type="logical" name="LELF"> F  </i>
   <i type="logical" name="LOPTICS"> F  </i>
   <v name="STM">      0.00000000      0.00000000      0.00000000      0.00000000      0.00000000      0.00000000      0.00000000</v>
  </separator>
  <separator name="performance" >
   <i type="int" name="NPAR">     8</i>
   <i type="int" name="NSIM">     4</i>
   <i type="int" name="NBLK">    -1</i>
   <i type="logical" name="LPLANE"> T  </i>
   <i type="logical" name="LSCALAPACK"> T  </i>
   <i type="logical" name="LSCAAWARE"> F  </i>
   <i type="logical" name="LSCALU"> F  </i>
   <i type="logical" name="LASYNC"> F  </i>
   <i type="logical" name="LORBITALREAL"> F  </i>
  </separator>
  <separator name="miscellaneous" >
   <i type="int" name="IDIOT">     3</i>
   <i type="int" name="PHON_NSTRUCT">    -1</i>
   <i type="logical" name="LMUSIC"> F  </i>
   <v name="POMASS">     22.99000000     16.00000000     35.45300000</v>
   <v name="DARWINR">      0.00000000      0.00000000      0.00000000</v>
   <v name="DARWINV">      1.00000000      1.00000000      1.00000000</v>
   <i type="logical" name="LCORR"> T  </i>
  </separator>
  <i type="logical" name="GGA_COMPAT"> T  </i>
  <i type="logical" name="LBERRY"> F  </i>
  <i type="int" name="ICORELEVEL">     0</i>
  <i type="logical" name="LDAU"> F  </i>
  <i type="int" name="I_CONSTRAINED_M">     0</i>
  <separator name="electronic exchange-correlation" >
   <i type="string" name="GGA">PE</i>
   <i type="int" name="VOSKOWN">     0</i>
   <i type="logical" name="LHFCALC"> F  </i>
   <i type="string" name="PRECFOCK"></i>
   <i type="logical" name="LSYMGRAD"> F  </i>
   <i type="logical" name="LHFONE"> F  </i>
   <i type="logical" name="LRHFCALC"> F  </i>
   <i type="logical" name="LTHOMAS"> F  </i>
   <i type="logical" name="LMODELHF"> F  </i>
   <i type="logical" name="LFOCKACE"> F  </i>
   <i name="ENCUT4O">     -1.00000000</i>
   <i type="int" name="EXXOEP">     0</i>
   <i type="int" name="FOURORBIT">     0</i>
   <i name="AEXX">      0.00000000</i>
   <i name="HFALPHA">      0.00000000</i>
   <i name="MCALPHA">      0.00000000</i>
   <i name="ALDAX">      1.00000000</i>
   <i name="AGGAX">      1.00000000</i>
   <i name="ALDAC">      1.00000000</i>
   <i name="AGGAC">      1.00000000</i>
   <i type="int" name="NKREDX">     1</i>
   <i type="int" name="NKREDY">     1</i>
   <i type="int" name="NKREDZ">     1</i>
   <i type="logical" name="SHIFTRED"> F  </i>
   <i type="logical" name="ODDONLY"> F  </i>
   <i type="logical" name="EVENONLY"> F  </i>
   <i type="int" name="LMAXFOCK">     0</i>
   <i type="int" name="NMAXFOCKAE">     0</i>
   <i type="logical" name="LFOCKAEDFT"> F  </i>
   <i name="HFSCREEN">      0.00000000</i>
   <i name="HFSCREENC">      0.00000000</i>
   <i type="int" name="NBANDSGWLOW">     0</i>
  </separator>
  <separator name="vdW DFT" >
   <i type="logical" name="LUSE_VDW"> F  </i>
   <i name="Zab_VDW">     -0.84910000</i>
   <i name="PARAM1">      0.12340000</i>
   <i name="PARAM2">      1.00000000</i>
   <i name="PARAM3">      0.00000000</i>
  </separator>
  <separator name="model GW" >
   <i type="int" name="MODEL_GW">     0</i>
   <i name="MODEL_EPS0">     18.80060876</i>
   <i name="MODEL_ALPHA">      1.00000000</i>
  </separator>
  <separator name="linear response parameters" >
   <i type="logical" name="LEPSILON"> F  </i>
   <i type="logical" name="LRPA"> F  </i>
   <i type="logical" name="LNABLA"> F  </i>
   <i type="logical" name="LVEL"> F  </i>
   <i type="int" name="KINTER">     0</i>
   <i name="CSHIFT">      0.10000000</i>
   <i name="OMEGAMAX">     -1.00000000</i>
   <i name="DEG_THRESHOLD">      0.00200000</i>
   <i name="RTIME">     -0.10000000</i>
   <i name="WPLASMAI">      0.00000000</i>
   <v name="DFIELD">      0.00000000      0.00000000      0.00000000</v>
   <v name="WPLASMA">      0.00000000      0.00000000      0.00000000      0.00000000      0.00000000      0.00000000      0.00000000      0.00000000      0.00000000</v>
  </separator>
  <separator name="orbital magnetization" >
   <i type="logical" name="NUCIND"> F  </i>
   <v name="MAGPOS">      0.00000000      0.00000000      0.00000000</v>
   <i type="logical" name="LNICSALL"> T  </i>
   <i type="logical" name="ORBITALMAG"> F  </i>
   <i type="logical" name="LMAGBLOCH"> F  </i>
   <i type="logical" name="LCHIMAG"> F  </i>
   <i type="logical" name="LGAUGE"> T  </i>
   <i type="int" name="MAGATOM">     0</i>
   <v name="MAGDIPOL">      0.00000000      0.00000000      0.00000000</v>
   <v name="AVECCONST">      0.00000000      0.00000000      0.00000000</v>
  </separator>
  <separator name="response functions" >
   <i type="logical" name="LFINITE_TEMPERATURE"> F  </i>
   <i type="logical" name="LADDER"> F  </i>
   <i type="logical" name="LRPAFORCE"> F  </i>
   <i type="logical" name="LFXC"> F  </i>
   <i type="logical" name="LHARTREE"> T  </i>
   <i type="int" name="IBSE">     0</i>
   <v type="int" name="KPOINT">    -1     0     0     0</v>
   <i type="logical" name="LTCTC"> F  </i>
   <i type="logical" name="LTCTE"> F  </i>
   <i type="logical" name="LTETE"> F  </i>
   <i type="logical" name="LTRIPLET"> F  </i>
   <i type="logical" name="LFXCEPS"> F  </i>
   <i type="logical" name="LFXHEG"> F  </i>
   <i type="int" name="NATURALO">     2</i>
   <i type="logical" name="LHOLEGF"> F  </i>
   <i type="logical" name="L2ORDER"> F  </i>
   <i type="logical" name="LDMP1"> F  </i>
   <i type="logical" name="LMP2LT"> F  </i>
   <i type="logical" name="LSMP2LT"> F  </i>
   <i type="logical" name="LGWLF"> F  </i>
   <i name="ENCUTGW">     -2.00000000</i>
   <i name="ENCUTGWSOFT">     -2.00000000</i>
   <i name="ENCUTLF">     -1.00000000</i>
   <i type="logical" name="LESF_SPLINES"> F  </i>
   <i type="int" name="LMAXMP2">    -1</i>
   <i name="SCISSOR">      0.00000000</i>
   <i type="int" name="NOMEGA">     0</i>
   <i type="int" name="NOMEGAR">     0</i>
   <i type="int" name="NBANDSGW">    -1</i>
   <i type="int" name="NBANDSO">    -1</i>
   <i type="int" name="NBANDSV">    -1</i>
   <i type="int" name="NELM">   150</i>
   <i type="int" name="NELMHF">     1</i>
   <i type="int" name="DIM">     3</i>
   <i type="int" name="IESPILON">     4</i>
   <i type="int" name="ANTIRES">     0</i>
   <i name="OMEGAMAX">    -30.00000000</i>
   <i name="OMEGAMIN">    -30.00000000</i>
   <i name="OMEGATL">   -200.00000000</i>
   <i type="int" name="OMEGAGRID">     0</i>
   <i name="CSHIFT">     -0.10000000</i>
   <i type="logical" name="LSELFENERGY"> F  </i>
   <i type="logical" name="LSPECTRAL"> F  </i>
   <i type="logical" name="LSPECTRALGW"> F  </i>
   <i type="logical" name="LSINGLES"> F  </i>
   <i type="logical" name="LFERMIGW"> F  </i>
   <i type="logical" name="ODDONLYGW"> F  </i>
   <i type="logical" name="EVENONLYGW"> F  </i>
   <i type="int" name="NKREDLFX">     1</i>
   <i type="int" name="NKREDLFY">     1</i>
   <i type="int" name="NKREDLFZ">     1</i>
   <i type="int" name="MAXMEM">  2800</i>
   <i type="int" name="TELESCOPE">     0</i>
   <i type="int" name="NTAUPAR">    -1</i>
   <i type="int" name="NOMEGAPAR">    -1</i>
   <i name="DAMP_NEWTON">      0.80000001</i>
   <i name="LAMBDA">      1.00000000</i>
  </separator>
  <separator name="External order field" >
   <i name="OFIELD_KAPPA">      0.00000000</i>
   <v name="OFIELD_K">      0.00000000      0.00000000      0.00000000</v>
   <i name="OFIELD_Q6_NEAR">      0.00000000</i>
   <i name="OFIELD_Q6_FAR">      0.00000000</i>
   <i name="OFIELD_A">      0.00000000</i>
  </separator>
 </parameters>
 <atominfo>
  <atoms>      15 </atoms>
  <types>       3 </types>
  <array name="atoms" >
   <dimension dim="1">ion</dimension>
   <field type="string">element</field>
   <field type="int">atomtype</field>
   <set>
    <rc><c>Na</c><c>   1</c></rc>
    <rc><c>Na</c><c>   1</c></rc>
    <rc><c>Na</c><c>   1</c></rc>
    <rc><c>Na</c><c>   1</c></rc>
    <rc><c>Na</c><c>   1</c></rc>
    <rc><c>Na</c><c>   1</c></rc>
    <rc><c>Na</c><c>   1</c></rc>
    <rc><c>Na</c><c>   1</c></rc>
    <rc><c>Na</c><c>   1</c></rc>
    <rc><c>O </c><c>   2</c></rc>
    <rc><c>O </c><c>   2</c></rc>
    <rc><c>O </c><c>   2</c></rc>
    <rc><c>Cl</c><c>   3</c></rc>
    <rc><c>Cl</c><c>   3</c></rc>
    <rc><c>Cl</c><c>   3</c></rc>
   </set>
  </array>
  <array name="atomtypes" >
   <dimension dim="1">type</dimension>
   <field type="int">atomspertype</field>
   <field type="string">element</field>
   <field>mass</field>
   <field>valence</field>
   <field type="string">pseudopotential</field>
   <set>
    <rc><c>   9</c><c>Na</c><c>     22.99000000</c><c>      1.00000000</c><c>  PAW_PBE Na 08Apr2002                  </c></rc>
    <rc><c>   3</c><c>O </c><c>     16.00000000</c><c>      6.00000000</c><c>  PAW_PBE O 08Apr2002                   </c></rc>
    <rc><c>   3</c><c>Cl</c><c>     35.45300000</c><c>      7.00000000</c><c>  PAW_PBE Cl 06Sep2000                  </c></rc>
   </set>
  </array>
 </atominfo>
 <structure name="initialpos" >
  <crystal>
   <varray name="basis" >
    <v>      -3.15184252      -3.15184252       0.00000000 </v>
    <v>       4.45737844      -4.45737844       0.00000000 </v>
    <v>      11.82831571     -11.82831571      16.72776449 </v>
   </varray>
   <i name="volume">    470.01521889 </i>
   <varray name="rec_basis" >
    <v>      -0.15863737      -0.15863737       0.00000000 </v>
    <v>       0.11217356      -0.11217356      -0.15863737 </v>
    <v>       0.00000000       0.00000000       0.05978085 </v>
   </varray>
  </crystal>
  <varray name="positions" >
   <v>       0.50000017       0.49999983       0.35868511 </v>
   <v>       0.00000010       0.49999983       0.45289504 </v>
   <v>       0.50000017       0.99999990       0.35868511 </v>
   <v>       0.50000017       0.49999983       0.45289504 </v>
   <v>       0.00000010       0.49999983       0.54710496 </v>
   <v>       0.50000017       0.99999990       0.45289504 </v>
   <v>       0.50000017       0.49999983       0.54710496 </v>
   <v>       0.00000010       0.49999983       0.64131489 </v>
   <v>       0.50000017       0.99999990       0.54710496 </v>
   <v>       0.50000017       0.49999983       0.45289504 </v>
   <v>       0.50000017       0.49999983       0.54710496 </v>
   <v>       0.50000017       0.49999983       0.64131489 </v>
   <v>       0.00000010       0.99999990       0.45289501 </v>
   <v>       0.00000010       0.99999990       0.54710494 </v>
   <v>       0.00000010       0.99999990       0.64131486 </v>
  </varray>
 </structure>
 <calculation>
  <scstep>
   <time name="dav">    0.12    0.13</time>
   <time name="total">    0.18    0.19</time>
   <dipole>
    <v name="dipole">      0.00198749      -0.00198749       0.00281073 </v>
    <i name="Tr[quadrupol]">   -302.54015309 </i>
    <i name="Echarged">      0.00000000 </i>
    <i name="Edipol_quadrupol">      0.00000000 </i>
    <i name="Eion">      0.00000000 </i>
   </dipole>
   <energy>
    <i name="alphaZ">     -0.49560439 </i>
    <i name="ewald">   3192.28128257 </i>
    <i name="hartreedc">  -5473.50576598 </i>
    <i name="XCdc">   -203.52558722 </i>
    <i name="pawpsdc">   2374.36041737 </i>
    <i name="pawaedc">  -2042.52119097 </i>
    <i name="eentropy">     -0.04002834 </i>
    <i name="bandstr">   -259.30426121 </i>
    <i name="atom">   2572.36292992 </i>
    <i name="e_fr_energy">    159.61219174 </i>
    <i name="e_wo_entrp">    159.65222008 </i>
    <i name="e_0_energy">    159.63220591 </i>
   </energy>
  </scstep>
  <scstep>
   <time name="dav">    0.27    0.38</time>
   <time name="total">    0.27    0.38</time>
   <dipole>
    <v name="dipole">      0.00198749      -0.00198749       0.00281073 </v>
    <i name="Tr[quadrupol]">   -302.54015309 </i>
    <i name="Echarged">      0.00000000 </i>
    <i name="Edipol_quadrupol">      0.00000000 </i>
    <i name="Eion">      0.00000000 </i>
   </dipole>
   <energy>
    <i name="e_fr_energy">   -215.18509645 </i>
    <i name="e_wo_entrp">   -215.16666753 </i>
    <i name="e_0_energy">   -215.17588199 </i>
   </energy>
  </scstep>
  <scstep>
   <time name="dav">    0.12    0.12</time>
   <time name="total">    0.12    0.12</time>
   <dipole>
    <v name="dipole">      0.00198749      -0.00198749       0.00281073 </v>
    <i name="Tr[quadrupol]">   -302.54015309 </i>
    <i name="Echarged">      0.00000000 </i>
    <i name="Edipol_quadrupol">      0.00000000 </i>
    <i name="Eion">      0.00000000 </i>
   </dipole>
   <energy>
    <i name="e_fr_energy">   -326.38117431 </i>
    <i name="e_wo_entrp">   -326.38117431 </i>
    <i name="e_0_energy">   -326.38117431 </i>
   </energy>
  </scstep>
  <scstep>
   <time name="dav">    0.09    0.09</time>
   <time name="total">    0.09    0.09</time>
   <dipole>
    <v name="dipole">      0.00198749      -0.00198749       0.00281073 </v>
    <i name="Tr[quadrupol]">   -302.54015309 </i>
    <i name="Echarged">      0.00000000 </i>
    <i name="Edipol_quadrupol">      0.00000000 </i>
    <i name="Eion">      0.00000000 </i>
   </dipole>
   <energy>
    <i name="e_fr_energy">   -331.42681677 </i>
    <i name="e_wo_entrp">   -331.42681677 </i>
    <i name="e_0_energy">   -331.42681677 </i>
   </energy>
  </scstep>
  <scstep>
   <time name="dav">    0.10    0.10</time>
   <time name="total">    0.12    0.12</time>
   <dipole>
    <v name="dipole">      0.00198749      -0.00198749       0.00281073 </v>
    <i name="Tr[quadrupol]">   -302.54015309 </i>
    <i name="Echarged">      0.00000000 </i>
    <i name="Edipol_quadrupol">      0.00000000 </i>
    <i name="Eion">      0.00000000 </i>
   </dipole>
   <energy>
    <i name="e_fr_energy">   -331.57799203 </i>
    <i name="e_wo_entrp">   -331.57799203 </i>
    <i name="e_0_energy">   -331.57799203 </i>
   </energy>
  </scstep>
  <scstep>
   <time name="diag">    0.03    0.03</time>
   <time name="diis">    0.02    0.02</time>
   <time name="orth">    0.00    0.00</time>
   <time name="total">    0.11    0.12</time>
   <dipole>
    <v name="dipole">      0.30074784      -0.30074784       0.42532168 </v>
    <i name="Tr[quadrupol]">   -306.84013588 </i>
    <i name="Echarged">      0.00000000 </i>
    <i name="Edipol_quadrupol">      0.00000000 </i>
    <i name="Eion">      0.00000000 </i>
   </dipole>
   <energy>
    <i name="e_fr_energy">   -176.97390044 </i>
    <i name="e_wo_entrp">   -176.97390044 </i>
    <i name="e_0_energy">   -176.97390044 </i>
   </energy>
  </scstep>
  <scstep>
   <time name="diag">    0.03    0.03</time>
   <time name="diis">    0.02    0.02</time>
   <time name="orth">    0.00    0.00</time>
   <time name="total">    0.11    0.11</time>
   <dipole>
    <v name="dipole">      0.14634591      -0.14634591       0.20696438 </v>
    <i name="Tr[quadrupol]">   -304.27835135 </i>
    <i name="Echarged">      0.00000000 </i>
    <i name="Edipol_quadrupol">      0.00000000 </i>
    <i name="Eion">      0.00000000 </i>
   </dipole>
   <energy>
    <i name="e_fr_energy">   -208.91738223 </i>
    <i name="e_wo_entrp">   -208.86251680 </i>
    <i name="e_0_energy">   -208.88994952 </i>
   </energy>
  </scstep>
  <scstep>
   <time name="diag">    0.03    0.03</time>
   <time name="diis">    0.02    0.02</time>
   <time name="orth">    0.00    0.00</time>
   <time name="total">    0.11    0.11</time>
   <dipole>
    <v name="dipole">     -0.20973604       0.20973604      -0.29661156 </v>
    <i name="Tr[quadrupol]">   -306.59686205 </i>
    <i name="Echarged">      0.00000000 </i>
    <i name="Edipol_quadrupol">      0.00000000 </i>
    <i name="Eion">      0.00000000 </i>
   </dipole>
   <energy>
    <i name="e_fr_energy">   -149.64744173 </i>
    <i name="e_wo_entrp">   -149.64744173 </i>
    <i name="e_0_energy">   -149.64744173 </i>
   </energy>
  </scstep>
  <scstep>
   <time name="diag">    0.03    0.03</time>
   <time name="diis">    0.02    0.02</time>
   <time name="orth">    0.00    0.00</time>
   <time name="total">    0.11    0.11</time>
   <dipole>
    <v name="dipole">      0.01726589      -0.01726589       0.02441765 </v>
    <i name="Tr[quadrupol]">   -308.50015405 </i>
    <i name="Echarged">      0.00000000 </i>
    <i name="Edipol_quadrupol">      0.00000000 </i>
    <i name="Eion">      0.00000000 </i>
   </dipole>
   <energy>
    <i name="e_fr_energy">    -79.90837504 </i>
    <i name="e_wo_entrp">    -79.84350437 </i>
    <i name="e_0_energy">    -79.87593970 </i>
   </energy>
  </scstep>
  <scstep>
   <time name="diag">    0.03    0.03</time>
   <time name="diis">    0.02    0.02</time>
   <time name="orth">    0.00    0.00</time>
   <time name="total">    0.11    0.11</time>
   <dipole>
    <v name="dipole">      0.08220175      -0.08220175       0.11625083 </v>
    <i name="Tr[quadrupol]">   -308.25749854 </i>
    <i name="Echarged">      0.00000000 </i>
    <i name="Edipol_quadrupol">      0.00000000 </i>
    <i name="Eion">      0.00000000 </i>
   </dipole>
   <energy>
    <i name="e_fr_energy">    -86.47307921 </i>
    <i name="e_wo_entrp">    -86.44306959 </i>
    <i name="e_0_energy">    -86.45807440 </i>
   </energy>
  </scstep>
  <scstep>
   <time name="diag">    0.03    0.04</time>
   <time name="diis">    0.02    0.03</time>
   <time name="orth">    0.01    0.01</time>
   <time name="total">    0.13    0.15</time>
   <dipole>
    <v name="dipole">      0.07661359      -0.07661359       0.10834798 </v>
    <i name="Tr[quadrupol]">   -308.15530252 </i>
    <i name="Echarged">      0.00000000 </i>
    <i name="Edipol_quadrupol">      0.00000000 </i>
    <i name="Eion">      0.00000000 </i>
   </dipole>
   <energy>
    <i name="e_fr_energy">    -82.47220870 </i>
    <i name="e_wo_entrp">    -82.44976277 </i>
    <i name="e_0_energy">    -82.46098574 </i>
   </energy>
  </scstep>
  <scstep>
   <time name="diag">    0.03    0.03</time>
   <time name="diis">    0.02    0.02</time>
   <time name="orth">    0.00    0.00</time>
   <time name="total">    0.12    0.13</time>
   <dipole>
    <v name="dipole">      0.02624107      -0.02624107       0.03711048 </v>
    <i name="Tr[quadrupol]">   -308.17816213 </i>
    <i name="Echarged">      0.00000000 </i>
    <i name="Edipol_quadrupol">      0.00000000 </i>
    <i name="Eion">      0.00000000 </i>
   </dipole>
   <energy>
    <i name="e_fr_energy">    -85.21753858 </i>
    <i name="e_wo_entrp">    -85.21590521 </i>
    <i name="e_0_energy">    -85.21672190 </i>
   </energy>
  </scstep>
  <scstep>
   <time name="diag">    0.03    0.03</time>
   <time name="diis">    0.02    0.02</time>
   <time name="orth">    0.00    0.00</time>
   <time name="total">    0.11    0.12</time>
   <dipole>
    <v name="dipole">     -0.02215069       0.02215069      -0.03132580 </v>
    <i name="Tr[quadrupol]">   -308.08806375 </i>
    <i name="Echarged">      0.00000000 </i>
    <i name="Edipol_quadrupol">      0.00000000 </i>
    <i name="Eion">      0.00000000 </i>
   </dipole>
   <energy>
    <i name="e_fr_energy">    -90.57832581 </i>
    <i name="e_wo_entrp">    -90.57832214 </i>
    <i name="e_0_energy">    -90.57832398 </i>
   </energy>
  </scstep>
  <scstep>
   <time name="diag">    0.03    0.03</time>
   <time name="diis">    0.02    0.02</time>
   <time name="orth">    0.00    0.00</time>
   <time name="total">    0.12    0.12</time>
   <dipole>
    <v name="dipole">     -0.11033690       0.11033690      -0.15603995 </v>
    <i name="Tr[quadrupol]">   -308.23600790 </i>
    <i name="Echarged">      0.00000000 </i>
    <i name="Edipol_quadrupol">      0.00000000 </i>
    <i name="Eion">      0.00000000 </i>
   </dipole>
   <energy>
    <i name="e_fr_energy">    -95.58922802 </i>
    <i name="e_wo_entrp">    -95.58915582 </i>
    <i name="e_0_energy">    -95.58919192 </i>
   </energy>
  </scstep>
  <scstep>
   <time name="diag">    0.03    0.03</time>
   <time name="diis">    0.02    0.02</time>
   <time name="orth">    0.00    0.00</time>
   <time name="total">    0.11    0.11</time>
   <dipole>
    <v name="dipole">     -0.12633515       0.12633515      -0.17866489 </v>
    <i name="Tr[quadrupol]">   -308.49339416 </i>
    <i name="Echarged">      0.00000000 </i>
    <i name="Edipol_quadrupol">      0.00000000 </i>
    <i name="Eion">      0.00000000 </i>
   </dipole>
   <energy>
    <i name="e_fr_energy">    -91.61563765 </i>
    <i name="e_wo_entrp">    -91.61548840 </i>
    <i name="e_0_energy">    -91.61556303 </i>
   </energy>
  </scstep>
  <scstep>
   <time name="diag">    0.03    0.03</time>
   <time name="diis">    0.02    0.02</time>
   <time name="orth">    0.00    0.00</time>
   <time name="total">    0.11    0.11</time>
   <dipole>
    <v name="dipole">     -0.15575612       0.15575612      -0.22027241 </v>
    <i name="Tr[quadrupol]">   -308.53156719 </i>
    <i name="Echarged">      0.00000000 </i>
    <i name="Edipol_quadrupol">      0.00000000 </i>
    <i name="Eion">      0.00000000 </i>
   </dipole>
   <energy>
    <i name="e_fr_energy">    -92.29725191 </i>
    <i name="e_wo_entrp">    -92.29645790 </i>
    <i name="e_0_energy">    -92.29685490 </i>
   </energy>
  </scstep>
  <scstep>
   <time name="diag">    0.03    0.03</time>
   <time name="diis">    0.02    0.02</time>
   <time name="orth">    0.00    0.00</time>
   <time name="total">    0.11    0.11</time>
   <dipole>
    <v name="dipole">     -0.16535242       0.16535242      -0.23384364 </v>
    <i name="Tr[quadrupol]">   -308.53925077 </i>
    <i name="Echarged">      0.00000000 </i>
    <i name="Edipol_quadrupol">      0.00000000 </i>
    <i name="Eion">      0.00000000 </i>
   </dipole>
   <energy>
    <i name="e_fr_energy">    -92.55477892 </i>
    <i name="e_wo_entrp">    -92.55335210 </i>
    <i name="e_0_energy">    -92.55406551 </i>
   </energy>
  </scstep>
  <scstep>
   <time name="diag">    0.03    0.03</time>
   <time name="diis">    0.02    0.02</time>
   <time name="orth">    0.00    0.00</time>
   <time name="total">    0.11    0.11</time>
   <dipole>
    <v name="dipole">     -0.18437218       0.18437218      -0.26074164 </v>
    <i name="Tr[quadrupol]">   -308.49656987 </i>
    <i name="Echarged">      0.00000000 </i>
    <i name="Edipol_quadrupol">      0.00000000 </i>
    <i name="Eion">      0.00000000 </i>
   </dipole>
   <energy>
    <i name="e_fr_energy">    -89.11430883 </i>
    <i name="e_wo_entrp">    -89.11418765 </i>
    <i name="e_0_energy">    -89.11424824 </i>
   </energy>
  </scstep>
  <scstep>
   <time name="diag">    0.09    0.14</time>
   <time name="diis">    0.02    0.02</time>
   <time name="orth">    0.00    0.00</time>
   <time name="total">    0.18    0.23</time>
   <dipole>
    <v name="dipole">     -0.19444560       0.19444560      -0.27498760 </v>
    <i name="Tr[quadrupol]">   -308.50213686 </i>
    <i name="Echarged">      0.00000000 </i>
    <i name="Edipol_quadrupol">      0.00000000 </i>
    <i name="Eion">      0.00000000 </i>
   </dipole>
   <energy>
    <i name="e_fr_energy">    -88.77614916 </i>
    <i name="e_wo_entrp">    -88.77580320 </i>
    <i name="e_0_energy">    -88.77597618 </i>
   </energy>
  </scstep>
  <scstep>
   <time name="diag">    0.03    0.03</time>
   <time name="diis">    0.03    0.03</time>
   <time name="orth">    0.00    0.00</time>
   <time name="total">    0.12    0.12</time>
   <dipole>
    <v name="dipole">     -0.27550228       0.27550228      -0.38961906 </v>
    <i name="Tr[quadrupol]">   -308.55125169 </i>
    <i name="Echarged">      0.00000000 </i>
    <i name="Edipol_quadrupol">      0.00000000 </i>
    <i name="Eion">      0.00000000 </i>
   </dipole>
   <energy>
    <i name="e_fr_energy">    -85.34772660 </i>
    <i name="e_wo_entrp">    -85.32704374 </i>
    <i name="e_0_energy">    -85.33738517 </i>
   </energy>
  </scstep>
  <scstep>
   <time name="diag">    0.03    0.03</time>
   <time name="diis">    0.03    0.03</time>
   <time name="orth">    0.00    0.00</time>
   <time name="total">    0.12    0.12</time>
   <dipole>
    <v name="dipole">     -0.27845942       0.27845942      -0.39380108 </v>
    <i name="Tr[quadrupol]">   -308.51694229 </i>
    <i name="Echarged">      0.00000000 </i>
    <i name="Edipol_quadrupol">      0.00000000 </i>
    <i name="Eion">      0.00000000 </i>
   </dipole>
   <energy>
    <i name="e_fr_energy">    -86.07261381 </i>
    <i name="e_wo_entrp">    -86.05512930 </i>
    <i name="e_0_energy">    -86.06387156 </i>
   </energy>
  </scstep>
  <scstep>
   <time name="diag">    0.03    0.03</time>
   <time name="diis">    0.03    0.03</time>
   <time name="orth">    0.00    0.00</time>
   <time name="total">    0.12    0.12</time>
   <dipole>
    <v name="dipole">     -0.33219488       0.33219488      -0.46979451 </v>
    <i name="Tr[quadrupol]">   -308.56308791 </i>
    <i name="Echarged">      0.00000000 </i>
    <i name="Edipol_quadrupol">      0.00000000 </i>
    <i name="Eion">      0.00000000 </i>
   </dipole>
   <energy>
    <i name="e_fr_energy">    -84.17010570 </i>
    <i name="e_wo_entrp">    -84.06953017 </i>
    <i name="e_0_energy">    -84.11981794 </i>
   </energy>
  </scstep>
  <scstep>
   <time name="diag">    0.03    0.03</time>
   <time name="diis">    0.02    0.02</time>
   <time name="orth">    0.00    0.00</time>
   <time name="total">    0.12    0.12</time>
   <dipole>
    <v name="dipole">     -0.28715839       0.28715839      -0.40610329 </v>
    <i name="Tr[quadrupol]">   -308.57104906 </i>
    <i name="Echarged">      0.00000000 </i>
    <i name="Edipol_quadrupol">      0.00000000 </i>
    <i name="Eion">      0.00000000 </i>
   </dipole>
   <energy>
    <i name="e_fr_energy">    -85.48827084 </i>
    <i name="e_wo_entrp">    -85.45396372 </i>
    <i name="e_0_energy">    -85.47111728 </i>
   </energy>
  </scstep>
  <scstep>
   <time name="diag">    0.03    0.03</time>
   <time name="diis">    0.02    0.02</time>
   <time name="orth">    0.00    0.00</time>
   <time name="total">    0.11    0.11</time>
   <dipole>
    <v name="dipole">     -0.24551691       0.24551691      -0.34721334 </v>
    <i name="Tr[quadrupol]">   -308.68969454 </i>
    <i name="Echarged">      0.00000000 </i>
    <i name="Edipol_quadrupol">      0.00000000 </i>
    <i name="Eion">      0.00000000 </i>
   </dipole>
   <energy>
    <i name="e_fr_energy">    -85.43696478 </i>
    <i name="e_wo_entrp">    -85.38758186 </i>
    <i name="e_0_energy">    -85.41227332 </i>
   </energy>
  </scstep>
  <scstep>
   <time name="diag">    0.03    0.03</time>
   <time name="diis">    0.03    0.03</time>
   <time name="orth">    0.00    0.00</time>
   <time name="total">    0.12    0.12</time>
   <dipole>
    <v name="dipole">     -0.18915034       0.18915034      -0.26749898 </v>
    <i name="Tr[quadrupol]">   -309.10061510 </i>
    <i name="Echarged">      0.00000000 </i>
    <i name="Edipol_quadrupol">      0.00000000 </i>
    <i name="Eion">      0.00000000 </i>
   </dipole>
   <energy>
    <i name="e_fr_energy">    -83.73156713 </i>
    <i name="e_wo_entrp">    -83.66968869 </i>
    <i name="e_0_energy">    -83.70062791 </i>
   </energy>
  </scstep>
  <scstep>
   <time name="diag">    0.03    0.03</time>
   <time name="diis">    0.04    0.04</time>
   <time name="orth">    0.00    0.01</time>
   <time name="total">    0.14    0.15</time>
   <dipole>
    <v name="dipole">     -0.12412320       0.12412320      -0.17553671 </v>
    <i name="Tr[quadrupol]">   -309.12499035 </i>
    <i name="Echarged">      0.00000000 </i>
    <i name="Edipol_quadrupol">      0.00000000 </i>
    <i name="Eion">      0.00000000 </i>
   </dipole>
   <energy>
    <i name="e_fr_energy">    -83.52601375 </i>
    <i name="e_wo_entrp">    -83.44828994 </i>
    <i name="e_0_energy">    -83.48715185 </i>
   </energy>
  </scstep>
  <scstep>
   <time name="diag">    0.03    0.03</time>
   <time name="diis">    0.05    0.05</time>
   <time name="orth">    0.01    0.01</time>
   <time name="total">    0.17    0.18</time>
   <dipole>
    <v name="dipole">     -0.06950514       0.06950514      -0.09829511 </v>
    <i name="Tr[quadrupol]">   -309.28526311 </i>
    <i name="Echarged">      0.00000000 </i>
    <i name="Edipol_quadrupol">      0.00000000 </i>
    <i name="Eion">      0.00000000 </i>
   </dipole>
   <energy>
    <i name="e_fr_energy">    -84.20246680 </i>
    <i name="e_wo_entrp">    -84.13213893 </i>
    <i name="e_0_energy">    -84.16730287 </i>
   </energy>
  </scstep>
  <scstep>
   <time name="diag">    0.03    0.03</time>
   <time name="diis">    0.03    0.03</time>
   <time name="orth">    0.00    0.00</time>
   <time name="total">    0.12    0.14</time>
   <dipole>
    <v name="dipole">      0.10352079      -0.10352079       0.14640050 </v>
    <i name="Tr[quadrupol]">   -309.50597433 </i>
    <i name="Echarged">      0.00000000 </i>
    <i name="Edipol_quadrupol">      0.00000000 </i>
    <i name="Eion">      0.00000000 </i>
   </dipole>
   <energy>
    <i name="e_fr_energy">    -85.93572132 </i>
    <i name="e_wo_entrp">    -85.90155772 </i>
    <i name="e_0_energy">    -85.91863952 </i>
   </energy>
  </scstep>
  <scstep>
   <time name="diag">    0.03    0.03</time>
   <time name="diis">    0.03    0.03</time>
   <time name="orth">    0.00    0.00</time>
   <time name="total">    0.12    0.12</time>
   <dipole>
    <v name="dipole">      0.15832803      -0.15832803       0.22390964 </v>
    <i name="Tr[quadrupol]">   -309.68976855 </i>
    <i name="Echarged">      0.00000000 </i>
    <i name="Edipol_quadrupol">      0.00000000 </i>
    <i name="Eion">      0.00000000 </i>
   </dipole>
   <energy>
    <i name="e_fr_energy">    -86.26431887 </i>
    <i name="e_wo_entrp">    -86.24793778 </i>
    <i name="e_0_energy">    -86.25612832 </i>
   </energy>
  </scstep>
  <scstep>
   <time name="diag">    0.03    0.03</time>
   <time name="diis">    0.03    0.03</time>
   <time name="orth">    0.00    0.00</time>
   <time name="total">    0.12    0.12</time>
   <dipole>
    <v name="dipole">      0.11145389      -0.11145389       0.15761961 </v>
    <i name="Tr[quadrupol]">   -309.91979912 </i>
    <i name="Echarged">      0.00000000 </i>
    <i name="Edipol_quadrupol">      0.00000000 </i>
    <i name="Eion">      0.00000000 </i>
   </dipole>
   <energy>
    <i name="e_fr_energy">    -82.03408758 </i>
    <i name="e_wo_entrp">    -82.01711864 </i>
    <i name="e_0_energy">    -82.02560311 </i>
   </energy>
  </scstep>
  <scstep>
   <time name="diag">    0.03    0.03</time>
   <time name="diis">    0.03    0.03</time>
   <time name="orth">    0.00    0.00</time>
   <time name="total">    0.12    0.12</time>
   <dipole>
    <v name="dipole">      0.10448674      -0.10448674       0.14776657 </v>
    <i name="Tr[quadrupol]">   -310.30016115 </i>
    <i name="Echarged">      0.00000000 </i>
    <i name="Edipol_quadrupol">      0.00000000 </i>
    <i name="Eion">      0.00000000 </i>
   </dipole>
   <energy>
    <i name="e_fr_energy">    -78.15617335 </i>
    <i name="e_wo_entrp">    -78.08696540 </i>
    <i name="e_0_energy">    -78.12156938 </i>
   </energy>
  </scstep>
  <scstep>
   <time name="diag">    0.03    0.03</time>
   <time name="diis">    0.03    0.03</time>
   <time name="orth">    0.00    0.00</time>
   <time name="total">    0.12    0.12</time>
   <dipole>
    <v name="dipole">      0.07273897      -0.07273897       0.10286844 </v>
    <i name="Tr[quadrupol]">   -310.47503228 </i>
    <i name="Echarged">      0.00000000 </i>
    <i name="Edipol_quadrupol">      0.00000000 </i>
    <i name="Eion">      0.00000000 </i>
   </dipole>
   <energy>
    <i name="e_fr_energy">    -76.95385208 </i>
    <i name="e_wo_entrp">    -76.88124120 </i>
    <i name="e_0_energy">    -76.91754664 </i>
   </energy>
  </scstep>
  <scstep>
   <time name="diag">    0.03    0.03</time>
   <time name="diis">    0.02    0.02</time>
   <time name="orth">    0.00    0.00</time>
   <time name="total">    0.11    0.11</time>
   <dipole>
    <v name="dipole">      0.07588752      -0.07588752       0.10732116 </v>
    <i name="Tr[quadrupol]">   -310.58451267 </i>
    <i name="Echarged">      0.00000000 </i>
    <i name="Edipol_quadrupol">      0.00000000 </i>
    <i name="Eion">      0.00000000 </i>
   </dipole>
   <energy>
    <i name="e_fr_energy">    -77.09421937 </i>
    <i name="e_wo_entrp">    -77.02255173 </i>
    <i name="e_0_energy">    -77.05838555 </i>
   </energy>
  </scstep>
  <scstep>
   <time name="diag">    0.03    0.03</time>
   <time name="diis">    0.02    0.02</time>
   <time name="orth">    0.00    0.00</time>
   <time name="total">    0.11    0.11</time>
   <dipole>
    <v name="dipole">      0.08153584      -0.08153584       0.11530910 </v>
    <i name="Tr[quadrupol]">   -310.75542358 </i>
    <i name="Echarged">      0.00000000 </i>
    <i name="Edipol_quadrupol">      0.00000000 </i>
    <i name="Eion">      0.00000000 </i>
   </dipole>
   <energy>
    <i name="e_fr_energy">    -77.25885106 </i>
    <i name="e_wo_entrp">    -77.18317732 </i>
    <i name="e_0_energy">    -77.22101419 </i>
   </energy>
  </scstep>
  <scstep>
   <time name="diag">    0.19    0.30</time>
   <time name="diis">    0.03    0.03</time>
   <time name="orth">    0.00    0.00</time>
   <time name="total">    0.28    0.39</time>
   <dipole>
    <v name="dipole">      0.11344579      -0.11344579       0.16043657 </v>
    <i name="Tr[quadrupol]">   -310.94783332 </i>
    <i name="Echarged">      0.00000000 </i>
    <i name="Edipol_quadrupol">      0.00000000 </i>
    <i name="Eion">      0.00000000 </i>
   </dipole>
   <energy>
    <i name="e_fr_energy">    -78.22629109 </i>
    <i name="e_wo_entrp">    -78.14001748 </i>
    <i name="e_0_energy">    -78.18315429 </i>
   </energy>
  </scstep>
  <scstep>
   <time name="diag">    0.03    0.03</time>
   <time name="diis">    0.02    0.02</time>
   <time name="orth">    0.00    0.00</time>
   <time name="total">    0.11    0.11</time>
   <dipole>
    <v name="dipole">      0.12240236      -0.12240236       0.17310308 </v>
    <i name="Tr[quadrupol]">   -311.01619714 </i>
    <i name="Echarged">      0.00000000 </i>
    <i name="Edipol_quadrupol">      0.00000000 </i>
    <i name="Eion">      0.00000000 </i>
   </dipole>
   <energy>
    <i name="e_fr_energy">    -78.46804602 </i>
    <i name="e_wo_entrp">    -78.37920729 </i>
    <i name="e_0_energy">    -78.42362666 </i>
   </energy>
  </scstep>
  <scstep>
   <time name="diag">    0.03    0.03</time>
   <time name="diis">    0.03    0.03</time>
   <time name="orth">    0.00    0.00</time>
   <time name="total">    0.12    0.12</time>
   <dipole>
    <v name="dipole">      0.13718239      -0.13718239       0.19400519 </v>
    <i name="Tr[quadrupol]">   -311.06302266 </i>
    <i name="Echarged">      0.00000000 </i>
    <i name="Edipol_quadrupol">      0.00000000 </i>
    <i name="Eion">      0.00000000 </i>
   </dipole>
   <energy>
    <i name="e_fr_energy">    -78.92715895 </i>
    <i name="e_wo_entrp">    -78.84477871 </i>
    <i name="e_0_energy">    -78.88596883 </i>
   </energy>
  </scstep>
  <scstep>
   <time name="diag">    0.03    0.03</time>
   <time name="diis">    0.02    0.02</time>
   <time name="orth">    0.00    0.00</time>
   <time name="total">    0.11    0.11</time>
   <dipole>
    <v name="dipole">      0.13419893      -0.13419893       0.18978595 </v>
    <i name="Tr[quadrupol]">   -311.05356001 </i>
    <i name="Echarged">      0.00000000 </i>
    <i name="Edipol_quadrupol">      0.00000000 </i>
    <i name="Eion">      0.00000000 </i>
   </dipole>
   <energy>
    <i name="e_fr_energy">    -78.68688099 </i>
    <i name="e_wo_entrp">    -78.58973148 </i>
    <i name="e_0_energy">    -78.63830623 </i>
   </energy>
  </scstep>
  <scstep>
   <time name="diag">    0.03    0.03</time>
   <time name="diis">    0.02    0.02</time>
   <time name="orth">    0.00    0.00</time>
   <time name="total">    0.11    0.11</time>
   <dipole>
    <v name="dipole">      0.13978412      -0.13978412       0.19768460 </v>
    <i name="Tr[quadrupol]">   -311.13104915 </i>
    <i name="Echarged">      0.00000000 </i>
    <i name="Edipol_quadrupol">      0.00000000 </i>
    <i name="Eion">      0.00000000 </i>
   </dipole>
   <energy>
    <i name="e_fr_energy">    -78.40224480 </i>
    <i name="e_wo_entrp">    -78.29890068 </i>
    <i name="e_0_energy">    -78.35057274 </i>
   </energy>
  </scstep>
  <scstep>
   <time name="diag">    0.03    0.03</time>
   <time name="diis">    0.02    0.02</time>
   <time name="orth">    0.00    0.00</time>
   <time name="total">    0.11    0.11</time>
   <dipole>
    <v name="dipole">      0.13698220      -0.13698220       0.19372209 </v>
    <i name="Tr[quadrupol]">   -311.19228726 </i>
    <i name="Echarged">      0.00000000 </i>
    <i name="Edipol_quadrupol">      0.00000000 </i>
    <i name="Eion">      0.00000000 </i>
   </dipole>
   <energy>
    <i name="e_fr_energy">    -78.21796647 </i>
    <i name="e_wo_entrp">    -78.10839364 </i>
    <i name="e_0_energy">    -78.16318005 </i>
   </energy>
  </scstep>
  <scstep>
   <time name="diag">    0.03    0.03</time>
   <time name="diis">    0.02    0.02</time>
   <time name="orth">    0.00    0.00</time>
   <time name="total">    0.11    0.11</time>
   <dipole>
    <v name="dipole">      0.13959446      -0.13959446       0.19741638 </v>
    <i name="Tr[quadrupol]">   -311.27235809 </i>
    <i name="Echarged">      0.00000000 </i>
    <i name="Edipol_quadrupol">      0.00000000 </i>
    <i name="Eion">      0.00000000 </i>
   </dipole>
   <energy>
    <i name="e_fr_energy">    -78.34794764 </i>
    <i name="e_wo_entrp">    -78.24278606 </i>
    <i name="e_0_energy">    -78.29536685 </i>
   </energy>
  </scstep>
  <scstep>
   <time name="diag">    0.03    0.03</time>
   <time name="diis">    0.02    0.02</time>
   <time name="orth">    0.00    0.00</time>
   <time name="total">    0.11    0.11</time>
   <dipole>
    <v name="dipole">      0.14148719      -0.14148719       0.20009310 </v>
    <i name="Tr[quadrupol]">   -311.29952642 </i>
    <i name="Echarged">      0.00000000 </i>
    <i name="Edipol_quadrupol">      0.00000000 </i>
    <i name="Eion">      0.00000000 </i>
   </dipole>
   <energy>
    <i name="e_fr_energy">    -78.48259386 </i>
    <i name="e_wo_entrp">    -78.37080345 </i>
    <i name="e_0_energy">    -78.42669865 </i>
   </energy>
  </scstep>
  <scstep>
   <time name="diag">    0.03    0.03</time>
   <time name="diis">    0.02    0.02</time>
   <time name="orth">    0.00    0.00</time>
   <time name="total">    0.11    0.11</time>
   <dipole>
    <v name="dipole">      0.14188123      -0.14188123       0.20065035 </v>
    <i name="Tr[quadrupol]">   -311.30397682 </i>
    <i name="Echarged">      0.00000000 </i>
    <i name="Edipol_quadrupol">      0.00000000 </i>
    <i name="Eion">      0.00000000 </i>
   </dipole>
   <energy>
    <i name="e_fr_energy">    -78.51313312 </i>
    <i name="e_wo_entrp">    -78.40123920 </i>
    <i name="e_0_energy">    -78.45718616 </i>
   </energy>
  </scstep>
  <scstep>
   <time name="diag">    0.03    0.03</time>
   <time name="diis">    0.03    0.03</time>
   <time name="orth">    0.00    0.00</time>
   <time name="total">    0.12    0.12</time>
   <dipole>
    <v name="dipole">      0.14511776      -0.14511776       0.20522750 </v>
    <i name="Tr[quadrupol]">   -311.29867215 </i>
    <i name="Echarged">      0.00000000 </i>
    <i name="Edipol_quadrupol">      0.00000000 </i>
    <i name="Eion">      0.00000000 </i>
   </dipole>
   <energy>
    <i name="e_fr_energy">    -78.51118942 </i>
    <i name="e_wo_entrp">    -78.39888247 </i>
    <i name="e_0_energy">    -78.45503594 </i>
   </energy>
  </scstep>
  <scstep>
   <time name="diag">    0.03    0.03</time>
   <time name="diis">    0.03    0.03</time>
   <time name="orth">    0.00    0.00</time>
   <time name="total">    0.12    0.12</time>
   <dipole>
    <v name="dipole">      0.14633185      -0.14633185       0.20694449 </v>
    <i name="Tr[quadrupol]">   -311.27931816 </i>
    <i name="Echarged">      0.00000000 </i>
    <i name="Edipol_quadrupol">      0.00000000 </i>
    <i name="Eion">      0.00000000 </i>
   </dipole>
   <energy>
    <i name="e_fr_energy">    -78.35044776 </i>
    <i name="e_wo_entrp">    -78.23688279 </i>
    <i name="e_0_energy">    -78.29366528 </i>
   </energy>
  </scstep>
  <scstep>
   <time name="diag">    0.03    0.03</time>
   <time name="diis">    0.03    0.03</time>
   <time name="orth">    0.00    0.00</time>
   <time name="total">    0.12    0.12</time>
   <dipole>
    <v name="dipole">      0.14499637      -0.14499637       0.20505584 </v>
    <i name="Tr[quadrupol]">   -311.25660517 </i>
    <i name="Echarged">      0.00000000 </i>
    <i name="Edipol_quadrupol">      0.00000000 </i>
    <i name="Eion">      0.00000000 </i>
   </dipole>
   <energy>
    <i name="e_fr_energy">    -77.98093618 </i>
    <i name="e_wo_entrp">    -77.86792519 </i>
    <i name="e_0_energy">    -77.92443069 </i>
   </energy>
  </scstep>
  <scstep>
   <time name="diag">    0.03    0.03</time>
   <time name="diis">    0.03    0.03</time>
   <time name="orth">    0.00    0.00</time>
   <time name="total">    0.12    0.12</time>
   <dipole>
    <v name="dipole">      0.14364253      -0.14364253       0.20314121 </v>
    <i name="Tr[quadrupol]">   -311.23820895 </i>
    <i name="Echarged">      0.00000000 </i>
    <i name="Edipol_quadrupol">      0.00000000 </i>
    <i name="Eion">      0.00000000 </i>
   </dipole>
   <energy>
    <i name="e_fr_energy">    -77.59238431 </i>
    <i name="e_wo_entrp">    -77.48127621 </i>
    <i name="e_0_energy">    -77.53683026 </i>
   </energy>
  </scstep>
  <scstep>
   <time name="diag">    0.03    0.03</time>
   <time name="diis">    0.03    0.03</time>
   <time name="orth">    0.00    0.00</time>
   <time name="total">    0.12    0.12</time>
   <dipole>
    <v name="dipole">      0.15238536      -0.15238536       0.21550544 </v>
    <i name="Tr[quadrupol]">   -311.21406761 </i>
    <i name="Echarged">      0.00000000 </i>
    <i name="Edipol_quadrupol">      0.00000000 </i>
    <i name="Eion">      0.00000000 </i>
   </dipole>
   <energy>
    <i name="e_fr_energy">    -77.27458024 </i>
    <i name="e_wo_entrp">    -77.16510988 </i>
    <i name="e_0_energy">    -77.21984506 </i>
   </energy>
  </scstep>
  <scstep>
   <time name="diag">    0.03    0.03</time>
   <time name="diis">    0.03    0.03</time>
   <time name="orth">    0.00    0.00</time>
   <time name="total">    0.12    0.12</time>
   <dipole>
    <v name="dipole">      0.15187384      -0.15187384       0.21478204 </v>
    <i name="Tr[quadrupol]">   -311.18156612 </i>
    <i name="Echarged">      0.00000000 </i>
    <i name="Edipol_quadrupol">      0.00000000 </i>
    <i name="Eion">      0.00000000 </i>
   </dipole>
   <energy>
    <i name="e_fr_energy">    -76.94850107 </i>
    <i name="e_wo_entrp">    -76.83752662 </i>
    <i name="e_0_energy">    -76.89301385 </i>
   </energy>
  </scstep>
  <scstep>
   <time name="diag">    0.03    0.03</time>
   <time name="diis">    0.03    0.03</time>
   <time name="orth">    0.00    0.00</time>
   <time name="total">    0.12    0.12</time>
   <dipole>
    <v name="dipole">      0.15026796      -0.15026796       0.21251099 </v>
    <i name="Tr[quadrupol]">   -311.12261548 </i>
    <i name="Echarged">      0.00000000 </i>
    <i name="Edipol_quadrupol">      0.00000000 </i>
    <i name="Eion">      0.00000000 </i>
   </dipole>
   <energy>
    <i name="e_fr_energy">    -76.14930981 </i>
    <i name="e_wo_entrp">    -76.04001031 </i>
    <i name="e_0_energy">    -76.09466006 </i>
   </energy>
  </scstep>
  <scstep>
   <time name="diag">    0.04    0.05</time>
   <time name="diis">    0.04    0.05</time>
   <time name="orth">    0.00    0.00</time>
   <time name="total">    0.19    0.20</time>
   <dipole>
    <v name="dipole">      0.07835371      -0.07835371       0.11080888 </v>
    <i name="Tr[quadrupol]">   -310.98270411 </i>
    <i name="Echarged">      0.00000000 </i>
    <i name="Edipol_quadrupol">      0.00000000 </i>
    <i name="Eion">      0.00000000 </i>
   </dipole>
   <energy>
    <i name="e_fr_energy">    -76.22095418 </i>
    <i name="e_wo_entrp">    -76.13780299 </i>
    <i name="e_0_energy">    -76.17937859 </i>
   </energy>
  </scstep>
  <scstep>
   <time name="diag">    0.03    0.03</time>
   <time name="diis">    0.03    0.03</time>
   <time name="orth">    0.00    0.00</time>
   <time name="total">    0.24    0.25</time>
   <dipole>
    <v name="dipole">      0.11512325      -0.11512325       0.16280886 </v>
    <i name="Tr[quadrupol]">   -311.02537622 </i>
    <i name="Echarged">      0.00000000 </i>
    <i name="Edipol_quadrupol">      0.00000000 </i>
    <i name="Eion">      0.00000000 </i>
   </dipole>
   <energy>
    <i name="e_fr_energy">    -76.05890975 </i>
    <i name="e_wo_entrp">    -75.98308530 </i>
    <i name="e_0_energy">    -76.02099752 </i>
   </energy>
  </scstep>
  <scstep>
   <time name="diag">    0.03    0.03</time>
   <time name="diis">    0.03    0.03</time>
   <time name="orth">    0.00    0.00</time>
   <time name="total">    0.12    0.13</time>
   <dipole>
    <v name="dipole">      0.10510813      -0.10510813       0.14864535 </v>
    <i name="Tr[quadrupol]">   -311.00502076 </i>
    <i name="Echarged">      0.00000000 </i>
    <i name="Edipol_quadrupol">      0.00000000 </i>
    <i name="Eion">      0.00000000 </i>
   </dipole>
   <energy>
    <i name="e_fr_energy">    -75.17741289 </i>
    <i name="e_wo_entrp">    -75.10411534 </i>
    <i name="e_0_energy">    -75.14076412 </i>
   </energy>
  </scstep>
  <scstep>
   <time name="diag">    0.03    0.03</time>
   <time name="diis">    0.03    0.03</time>
   <time name="orth">    0.00    0.00</time>
   <time name="total">    0.12    0.12</time>
   <dipole>
    <v name="dipole">      0.12359205      -0.12359205       0.17478555 </v>
    <i name="Tr[quadrupol]">   -311.03018158 </i>
    <i name="Echarged">      0.00000000 </i>
    <i name="Edipol_quadrupol">      0.00000000 </i>
    <i name="Eion">      0.00000000 </i>
   </dipole>
   <energy>
    <i name="e_fr_energy">    -74.66812021 </i>
    <i name="e_wo_entrp">    -74.57973067 </i>
    <i name="e_0_energy">    -74.62392544 </i>
   </energy>
  </scstep>
  <scstep>
   <time name="diag">    0.03    0.03</time>
   <time name="diis">    0.03    0.03</time>
   <time name="orth">    0.00    0.00</time>
   <time name="total">    0.12    0.12</time>
   <dipole>
    <v name="dipole">      0.12366364      -0.12366364       0.17488680 </v>
    <i name="Tr[quadrupol]">   -311.03500446 </i>
    <i name="Echarged">      0.00000000 </i>
    <i name="Edipol_quadrupol">      0.00000000 </i>
    <i name="Eion">      0.00000000 </i>
   </dipole>
   <energy>
    <i name="e_fr_energy">    -74.82685379 </i>
    <i name="e_wo_entrp">    -74.73643263 </i>
    <i name="e_0_energy">    -74.78164321 </i>
   </energy>
  </scstep>
  <scstep>
   <time name="diag">    0.03    0.03</time>
   <time name="diis">    0.03    0.03</time>
   <time name="orth">    0.00    0.00</time>
   <time name="total">    0.12    0.13</time>
   <dipole>
    <v name="dipole">      0.38663480      -0.38663480       0.54678418 </v>
    <i name="Tr[quadrupol]">   -309.10685315 </i>
    <i name="Echarged">      0.00000000 </i>
    <i name="Edipol_quadrupol">      0.00000000 </i>
    <i name="Eion">      0.00000000 </i>
   </dipole>
   <energy>
    <i name="e_fr_energy">   -116.81663496 </i>
    <i name="e_wo_entrp">   -116.78424769 </i>
    <i name="e_0_energy">   -116.80044133 </i>
   </energy>
  </scstep>
  <scstep>
   <time name="diag">    0.03    0.03</time>
   <time name="diis">    0.03    0.03</time>
   <time name="orth">    0.00    0.00</time>
   <time name="total">    0.12    0.12</time>
   <dipole>
    <v name="dipole">      0.33559213      -0.33559213       0.47459895 </v>
    <i name="Tr[quadrupol]">   -309.35922715 </i>
    <i name="Echarged">      0.00000000 </i>
    <i name="Edipol_quadrupol">      0.00000000 </i>
    <i name="Eion">      0.00000000 </i>
   </dipole>
   <energy>
    <i name="e_fr_energy">   -103.29783027 </i>
    <i name="e_wo_entrp">   -103.26857627 </i>
    <i name="e_0_energy">   -103.28320327 </i>
   </energy>
  </scstep>
  <scstep>
   <time name="diag">    0.03    0.03</time>
   <time name="diis">    0.03    0.03</time>
   <time name="orth">    0.00    0.00</time>
   <time name="total">    0.12    0.12</time>
   <dipole>
    <v name="dipole">      0.24147384      -0.24147384       0.34149558 </v>
    <i name="Tr[quadrupol]">   -309.30168277 </i>
    <i name="Echarged">      0.00000000 </i>
    <i name="Edipol_quadrupol">      0.00000000 </i>
    <i name="Eion">      0.00000000 </i>
   </dipole>
   <energy>
    <i name="e_fr_energy">    -88.60402297 </i>
    <i name="e_wo_entrp">    -88.57811652 </i>
    <i name="e_0_energy">    -88.59106974 </i>
   </energy>
  </scstep>
  <scstep>
   <time name="diag">    0.03    0.03</time>
   <time name="diis">    0.03    0.03</time>
   <time name="orth">    0.00    0.00</time>
   <time name="total">    0.13    0.13</time>
   <dipole>
    <v name="dipole">      0.25674265      -0.25674265       0.36308893 </v>
    <i name="Tr[quadrupol]">   -309.43709463 </i>
    <i name="Echarged">      0.00000000 </i>
    <i name="Edipol_quadrupol">      0.00000000 </i>
    <i name="Eion">      0.00000000 </i>
   </dipole>
   <energy>
    <i name="e_fr_energy">    -82.60551973 </i>
    <i name="e_wo_entrp">    -82.57395451 </i>
    <i name="e_0_energy">    -82.58973712 </i>
   </energy>
  </scstep>
  <scstep>
   <time name="diag">    0.03    0.03</time>
   <time name="diis">    0.03    0.03</time>
   <time name="orth">    0.00    0.00</time>
   <time name="total">    0.12    0.12</time>
   <dipole>
    <v name="dipole">      0.24097720      -0.24097720       0.34079322 </v>
    <i name="Tr[quadrupol]">   -309.44599586 </i>
    <i name="Echarged">      0.00000000 </i>
    <i name="Edipol_quadrupol">      0.00000000 </i>
    <i name="Eion">      0.00000000 </i>
   </dipole>
   <energy>
    <i name="e_fr_energy">    -79.01733767 </i>
    <i name="e_wo_entrp">    -78.96959068 </i>
    <i name="e_0_energy">    -78.99346417 </i>
   </energy>
  </scstep>
  <scstep>
   <time name="diag">    0.03    0.03</time>
   <time name="diis">    0.03    0.03</time>
   <time name="orth">    0.00    0.00</time>
   <time name="total">    0.12    0.12</time>
   <dipole>
    <v name="dipole">      0.27740613      -0.27740613       0.39231151 </v>
    <i name="Tr[quadrupol]">   -309.39634678 </i>
    <i name="Echarged">      0.00000000 </i>
    <i name="Edipol_quadrupol">      0.00000000 </i>
    <i name="Eion">      0.00000000 </i>
   </dipole>
   <energy>
    <i name="e_fr_energy">    -86.20618233 </i>
    <i name="e_wo_entrp">    -86.17491553 </i>
    <i name="e_0_energy">    -86.19054893 </i>
   </energy>
  </scstep>
  <scstep>
   <time name="diag">    0.03    0.03</time>
   <time name="diis">    0.03    0.03</time>
   <time name="orth">    0.00    0.00</time>
   <time name="total">    0.12    0.12</time>
   <dipole>
    <v name="dipole">      0.26438040      -0.26438040       0.37389035 </v>
    <i name="Tr[quadrupol]">   -309.26609240 </i>
    <i name="Echarged">      0.00000000 </i>
    <i name="Edipol_quadrupol">      0.00000000 </i>
    <i name="Eion">      0.00000000 </i>
   </dipole>
   <energy>
    <i name="e_fr_energy">    -85.22331369 </i>
    <i name="e_wo_entrp">    -85.19194340 </i>
    <i name="e_0_energy">    -85.20762855 </i>
   </energy>
  </scstep>
  <scstep>
   <time name="diag">    0.03    0.03</time>
   <time name="diis">    0.02    0.02</time>
   <time name="orth">    0.00    0.00</time>
   <time name="total">    0.11    0.11</time>
   <dipole>
    <v name="dipole">      0.26442623      -0.26442623       0.37395516 </v>
    <i name="Tr[quadrupol]">   -309.26698454 </i>
    <i name="Echarged">      0.00000000 </i>
    <i name="Edipol_quadrupol">      0.00000000 </i>
    <i name="Eion">      0.00000000 </i>
   </dipole>
   <energy>
    <i name="e_fr_energy">    -85.22363409 </i>
    <i name="e_wo_entrp">    -85.19231494 </i>
    <i name="e_0_energy">    -85.20797452 </i>
   </energy>
  </scstep>
  <scstep>
   <time name="diag">    0.03    0.03</time>
   <time name="diis">    0.03    0.03</time>
   <time name="orth">    0.00    0.00</time>
   <time name="total">    0.12    0.12</time>
   <dipole>
    <v name="dipole">      0.27132936      -0.27132936       0.38371766 </v>
    <i name="Tr[quadrupol]">   -309.29675601 </i>
    <i name="Echarged">      0.00000000 </i>
    <i name="Edipol_quadrupol">      0.00000000 </i>
    <i name="Eion">      0.00000000 </i>
   </dipole>
   <energy>
    <i name="e_fr_energy">    -84.02984746 </i>
    <i name="e_wo_entrp">    -83.99926025 </i>
    <i name="e_0_energy">    -84.01455386 </i>
   </energy>
  </scstep>
  <scstep>
   <time name="diag">    0.03    0.03</time>
   <time name="diis">    0.03    0.03</time>
   <time name="orth">    0.00    0.00</time>
   <time name="total">    0.12    0.12</time>
   <dipole>
    <v name="dipole">      0.24848315      -0.24848315       0.35140824 </v>
    <i name="Tr[quadrupol]">   -309.25785233 </i>
    <i name="Echarged">      0.00000000 </i>
    <i name="Edipol_quadrupol">      0.00000000 </i>
    <i name="Eion">      0.00000000 </i>
   </dipole>
   <energy>
    <i name="e_fr_energy">    -79.54835096 </i>
    <i name="e_wo_entrp">    -79.49914011 </i>
    <i name="e_0_energy">    -79.52374554 </i>
   </energy>
  </scstep>
  <scstep>
   <time name="diag">    0.03    0.03</time>
   <time name="diis">    0.03    0.03</time>
   <time name="orth">    0.00    0.00</time>
   <time name="total">    0.12    0.12</time>
   <dipole>
    <v name="dipole">      0.25228739      -0.25228739       0.35678825 </v>
    <i name="Tr[quadrupol]">   -309.40962721 </i>
    <i name="Echarged">      0.00000000 </i>
    <i name="Edipol_quadrupol">      0.00000000 </i>
    <i name="Eion">      0.00000000 </i>
   </dipole>
   <energy>
    <i name="e_fr_energy">    -78.60140794 </i>
    <i name="e_wo_entrp">    -78.45079464 </i>
    <i name="e_0_energy">    -78.52610129 </i>
   </energy>
  </scstep>
  <scstep>
   <time name="diag">    0.03    0.03</time>
   <time name="diis">    0.03    0.03</time>
   <time name="orth">    0.00    0.00</time>
   <time name="total">    0.13    0.13</time>
   <dipole>
    <v name="dipole">      0.24080651      -0.24080651       0.34055184 </v>
    <i name="Tr[quadrupol]">   -309.59455518 </i>
    <i name="Echarged">      0.00000000 </i>
    <i name="Edipol_quadrupol">      0.00000000 </i>
    <i name="Eion">      0.00000000 </i>
   </dipole>
   <energy>
    <i name="e_fr_energy">    -78.98569456 </i>
    <i name="e_wo_entrp">    -78.98320591 </i>
    <i name="e_0_energy">    -78.98445024 </i>
   </energy>
  </scstep>
  <scstep>
   <time name="diag">    0.14    0.25</time>
   <time name="diis">    0.03    0.03</time>
   <time name="orth">    0.00    0.00</time>
   <time name="total">    0.29    0.39</time>
   <dipole>
    <v name="dipole">      0.23764730      -0.23764730       0.33608403 </v>
    <i name="Tr[quadrupol]">   -309.65324049 </i>
    <i name="Echarged">      0.00000000 </i>
    <i name="Edipol_quadrupol">      0.00000000 </i>
    <i name="Eion">      0.00000000 </i>
   </dipole>
   <energy>
    <i name="e_fr_energy">    -78.92749489 </i>
    <i name="e_wo_entrp">    -78.92528313 </i>
    <i name="e_0_energy">    -78.92638901 </i>
   </energy>
  </scstep>
  <scstep>
   <time name="diag">    0.03    0.03</time>
   <time name="diis">    0.03    0.03</time>
   <time name="orth">    0.00    0.00</time>
   <time name="total">    0.12    0.12</time>
   <dipole>
    <v name="dipole">      0.24159276      -0.24159276       0.34166375 </v>
    <i name="Tr[quadrupol]">   -309.57727263 </i>
    <i name="Echarged">      0.00000000 </i>
    <i name="Edipol_quadrupol">      0.00000000 </i>
    <i name="Eion">      0.00000000 </i>
   </dipole>
   <energy>
    <i name="e_fr_energy">    -81.35833196 </i>
    <i name="e_wo_entrp">    -81.35067002 </i>
    <i name="e_0_energy">    -81.35450099 </i>
   </energy>
  </scstep>
  <scstep>
   <time name="diag">    0.03    0.03</time>
   <time name="diis">    0.03    0.03</time>
   <time name="orth">    0.00    0.00</time>
   <time name="total">    0.12    0.12</time>
   <dipole>
    <v name="dipole">      0.26671979      -0.26671979       0.37719874 </v>
    <i name="Tr[quadrupol]">   -310.03588299 </i>
    <i name="Echarged">      0.00000000 </i>
    <i name="Edipol_quadrupol">      0.00000000 </i>
    <i name="Eion">      0.00000000 </i>
   </dipole>
   <energy>
    <i name="e_fr_energy">    -78.91173915 </i>
    <i name="e_wo_entrp">    -78.89493013 </i>
    <i name="e_0_energy">    -78.90333464 </i>
   </energy>
  </scstep>
  <scstep>
   <time name="diag">    0.03    0.03</time>
   <time name="diis">    0.03    0.03</time>
   <time name="orth">    0.00    0.00</time>
   <time name="total">    0.12    0.12</time>
   <dipole>
    <v name="dipole">      0.27908861      -0.27908861       0.39469090 </v>
    <i name="Tr[quadrupol]">   -310.19012648 </i>
    <i name="Echarged">      0.00000000 </i>
    <i name="Edipol_quadrupol">      0.00000000 </i>
    <i name="Eion">      0.00000000 </i>
   </dipole>
   <energy>
    <i name="e_fr_energy">    -78.16303578 </i>
    <i name="e_wo_entrp">    -78.15811918 </i>
    <i name="e_0_energy">    -78.16057748 </i>
   </energy>
  </scstep>
  <scstep>
   <time name="diag">    0.03    0.03</time>
   <time name="diis">    0.03    0.03</time>
   <time name="orth">    0.00    0.00</time>
   <time name="total">    0.12    0.12</time>
   <dipole>
    <v name="dipole">      0.27901630      -0.27901630       0.39458864 </v>
    <i name="Tr[quadrupol]">   -310.17829245 </i>
    <i name="Echarged">      0.00000000 </i>
    <i name="Edipol_quadrupol">      0.00000000 </i>
    <i name="Eion">      0.00000000 </i>
   </dipole>
   <energy>
    <i name="e_fr_energy">    -78.09084115 </i>
    <i name="e_wo_entrp">    -78.08609552 </i>
    <i name="e_0_energy">    -78.08846833 </i>
   </energy>
  </scstep>
  <scstep>
   <time name="diag">    0.03    0.03</time>
   <time name="diis">    0.03    0.03</time>
   <time name="orth">    0.00    0.00</time>
   <time name="total">    0.12    0.12</time>
   <dipole>
    <v name="dipole">      0.27977706      -0.27977706       0.39566452 </v>
    <i name="Tr[quadrupol]">   -310.22277704 </i>
    <i name="Echarged">      0.00000000 </i>
    <i name="Edipol_quadrupol">      0.00000000 </i>
    <i name="Eion">      0.00000000 </i>
   </dipole>
   <energy>
    <i name="e_fr_energy">    -78.04009401 </i>
    <i name="e_wo_entrp">    -78.03510025 </i>
    <i name="e_0_energy">    -78.03759713 </i>
   </energy>
  </scstep>
  <scstep>
   <time name="diag">    0.03    0.03</time>
   <time name="diis">    0.03    0.03</time>
   <time name="orth">    0.00    0.00</time>
   <time name="total">    0.12    0.12</time>
   <dipole>
    <v name="dipole">      0.28929992      -0.28929992       0.40913187 </v>
    <i name="Tr[quadrupol]">   -310.41231467 </i>
    <i name="Echarged">      0.00000000 </i>
    <i name="Edipol_quadrupol">      0.00000000 </i>
    <i name="Eion">      0.00000000 </i>
   </dipole>
   <energy>
    <i name="e_fr_energy">    -77.56445240 </i>
    <i name="e_wo_entrp">    -77.56125674 </i>
    <i name="e_0_energy">    -77.56285457 </i>
   </energy>
  </scstep>
  <scstep>
   <time name="diag">    0.03    0.03</time>
   <time name="diis">    0.03    0.03</time>
   <time name="orth">    0.00    0.00</time>
   <time name="total">    0.12    0.12</time>
   <dipole>
    <v name="dipole">      0.28857897      -0.28857897       0.40811229 </v>
    <i name="Tr[quadrupol]">   -310.39971721 </i>
    <i name="Echarged">      0.00000000 </i>
    <i name="Edipol_quadrupol">      0.00000000 </i>
    <i name="Eion">      0.00000000 </i>
   </dipole>
   <energy>
    <i name="e_fr_energy">    -77.38348171 </i>
    <i name="e_wo_entrp">    -77.37978080 </i>
    <i name="e_0_energy">    -77.38163125 </i>
   </energy>
  </scstep>
  <scstep>
   <time name="diag">    0.03    0.03</time>
   <time name="diis">    0.03    0.03</time>
   <time name="orth">    0.00    0.00</time>
   <time name="total">    0.12    0.12</time>
   <dipole>
    <v name="dipole">      0.28740528      -0.28740528       0.40645245 </v>
    <i name="Tr[quadrupol]">   -310.36510991 </i>
    <i name="Echarged">      0.00000000 </i>
    <i name="Edipol_quadrupol">      0.00000000 </i>
    <i name="Eion">      0.00000000 </i>
   </dipole>
   <energy>
    <i name="e_fr_energy">    -77.54315215 </i>
    <i name="e_wo_entrp">    -77.53990660 </i>
    <i name="e_0_energy">    -77.54152937 </i>
   </energy>
  </scstep>
  <scstep>
   <time name="diag">    0.03    0.03</time>
   <time name="diis">    0.03    0.03</time>
   <time name="orth">    0.00    0.00</time>
   <time name="total">    0.12    0.12</time>
   <dipole>
    <v name="dipole">      0.28989118      -0.28989118       0.40996804 </v>
    <i name="Tr[quadrupol]">   -310.43101650 </i>
    <i name="Echarged">      0.00000000 </i>
    <i name="Edipol_quadrupol">      0.00000000 </i>
    <i name="Eion">      0.00000000 </i>
   </dipole>
   <energy>
    <i name="e_fr_energy">    -77.35703249 </i>
    <i name="e_wo_entrp">    -77.35372805 </i>
    <i name="e_0_energy">    -77.35538027 </i>
   </energy>
  </scstep>
  <scstep>
   <time name="diag">    0.03    0.03</time>
   <time name="diis">    0.03    0.03</time>
   <time name="orth">    0.00    0.00</time>
   <time name="total">    0.12    0.12</time>
   <dipole>
    <v name="dipole">      0.28303057      -0.28303057       0.40026567 </v>
    <i name="Tr[quadrupol]">   -310.36931233 </i>
    <i name="Echarged">      0.00000000 </i>
    <i name="Edipol_quadrupol">      0.00000000 </i>
    <i name="Eion">      0.00000000 </i>
   </dipole>
   <energy>
    <i name="e_fr_energy">    -77.70953494 </i>
    <i name="e_wo_entrp">    -77.70279337 </i>
    <i name="e_0_energy">    -77.70616416 </i>
   </energy>
  </scstep>
  <scstep>
   <time name="diag">    0.03    0.03</time>
   <time name="diis">    0.03    0.03</time>
   <time name="orth">    0.00    0.00</time>
   <time name="total">    0.12    0.12</time>
   <dipole>
    <v name="dipole">      0.28517287      -0.28517287       0.40329534 </v>
    <i name="Tr[quadrupol]">   -310.39725453 </i>
    <i name="Echarged">      0.00000000 </i>
    <i name="Edipol_quadrupol">      0.00000000 </i>
    <i name="Eion">      0.00000000 </i>
   </dipole>
   <energy>
    <i name="e_fr_energy">    -78.03070170 </i>
    <i name="e_wo_entrp">    -78.02118347 </i>
    <i name="e_0_energy">    -78.02594259 </i>
   </energy>
  </scstep>
  <scstep>
   <time name="diag">    0.03    0.03</time>
   <time name="diis">    0.03    0.03</time>
   <time name="orth">    0.00    0.00</time>
   <time name="total">    0.12    0.12</time>
   <dipole>
    <v name="dipole">      0.28162577      -0.28162577       0.39827899 </v>
    <i name="Tr[quadrupol]">   -310.26703875 </i>
    <i name="Echarged">      0.00000000 </i>
    <i name="Edipol_quadrupol">      0.00000000 </i>
    <i name="Eion">      0.00000000 </i>
   </dipole>
   <energy>
    <i name="e_fr_energy">    -78.67685196 </i>
    <i name="e_wo_entrp">    -78.66406232 </i>
    <i name="e_0_energy">    -78.67045714 </i>
   </energy>
  </scstep>
  <scstep>
   <time name="diag">    0.03    0.04</time>
   <time name="diis">    0.03    0.03</time>
   <time name="orth">    0.00    0.00</time>
   <time name="total">    0.13    0.13</time>
   <dipole>
    <v name="dipole">      0.26484439      -0.26484439       0.37454652 </v>
    <i name="Tr[quadrupol]">   -310.01669995 </i>
    <i name="Echarged">      0.00000000 </i>
    <i name="Edipol_quadrupol">      0.00000000 </i>
    <i name="Eion">      0.00000000 </i>
   </dipole>
   <energy>
    <i name="e_fr_energy">    -79.63923408 </i>
    <i name="e_wo_entrp">    -79.62965616 </i>
    <i name="e_0_energy">    -79.63444512 </i>
   </energy>
  </scstep>
  <scstep>
   <time name="diag">    0.03    0.03</time>
   <time name="diis">    0.03    0.03</time>
   <time name="orth">    0.00    0.00</time>
   <time name="total">    0.12    0.12</time>
   <dipole>
    <v name="dipole">      0.26851172      -0.26851172       0.37973292 </v>
    <i name="Tr[quadrupol]">   -310.03047890 </i>
    <i name="Echarged">      0.00000000 </i>
    <i name="Edipol_quadrupol">      0.00000000 </i>
    <i name="Eion">      0.00000000 </i>
   </dipole>
   <energy>
    <i name="e_fr_energy">    -80.12262610 </i>
    <i name="e_wo_entrp">    -80.11390805 </i>
    <i name="e_0_energy">    -80.11826708 </i>
   </energy>
  </scstep>
  <scstep>
   <time name="diag">    0.03    0.03</time>
   <time name="diis">    0.03    0.03</time>
   <time name="orth">    0.00    0.00</time>
   <time name="total">    0.12    0.12</time>
   <dipole>
    <v name="dipole">      0.26933290      -0.26933290       0.38089424 </v>
    <i name="Tr[quadrupol]">   -310.10678400 </i>
    <i name="Echarged">      0.00000000 </i>
    <i name="Edipol_quadrupol">      0.00000000 </i>
    <i name="Eion">      0.00000000 </i>
   </dipole>
   <energy>
    <i name="e_fr_energy">    -80.89814658 </i>
    <i name="e_wo_entrp">    -80.88650685 </i>
    <i name="e_0_energy">    -80.89232672 </i>
   </energy>
  </scstep>
  <scstep>
   <time name="diag">    0.03    0.03</time>
   <time name="diis">    0.03    0.03</time>
   <time name="orth">    0.05    0.11</time>
   <time name="total">    0.18    0.24</time>
   <dipole>
    <v name="dipole">      0.27875941      -0.27875941       0.39422534 </v>
    <i name="Tr[quadrupol]">   -310.25040245 </i>
    <i name="Echarged">      0.00000000 </i>
    <i name="Edipol_quadrupol">      0.00000000 </i>
    <i name="Eion">      0.00000000 </i>
   </dipole>
   <energy>
    <i name="e_fr_energy">    -81.65935862 </i>
    <i name="e_wo_entrp">    -81.64153973 </i>
    <i name="e_0_energy">    -81.65044918 </i>
   </energy>
  </scstep>
  <scstep>
   <time name="diag">    0.03    0.03</time>
   <time name="diis">    0.03    0.03</time>
   <time name="orth">    0.00    0.00</time>
   <time name="total">    0.12    0.12</time>
   <dipole>
    <v name="dipole">      0.28658880      -0.28658880       0.40529777 </v>
    <i name="Tr[quadrupol]">   -310.38821729 </i>
    <i name="Echarged">      0.00000000 </i>
    <i name="Edipol_quadrupol">      0.00000000 </i>
    <i name="Eion">      0.00000000 </i>
   </dipole>
   <energy>
    <i name="e_fr_energy">    -82.21167658 </i>
    <i name="e_wo_entrp">    -82.18571220 </i>
    <i name="e_0_energy">    -82.19869439 </i>
   </energy>
  </scstep>
  <scstep>
   <time name="diag">    0.03    0.03</time>
   <time name="diis">    0.03    0.03</time>
   <time name="orth">    0.00    0.00</time>
   <time name="total">    0.12    0.12</time>
   <dipole>
    <v name="dipole">      0.30101866      -0.30101866       0.42570468 </v>
    <i name="Tr[quadrupol]">   -310.64028109 </i>
    <i name="Echarged">      0.00000000 </i>
    <i name="Edipol_quadrupol">      0.00000000 </i>
    <i name="Eion">      0.00000000 </i>
   </dipole>
   <energy>
    <i name="e_fr_energy">    -81.10164149 </i>
    <i name="e_wo_entrp">    -81.09075110 </i>
    <i name="e_0_energy">    -81.09619630 </i>
   </energy>
  </scstep>
  <scstep>
   <time name="diag">    0.03    0.03</time>
   <time name="diis">    0.03    0.03</time>
   <time name="orth">    0.00    0.00</time>
   <time name="total">    0.12    0.12</time>
   <dipole>
    <v name="dipole">      0.31227699      -0.31227699       0.44162636 </v>
    <i name="Tr[quadrupol]">   -311.06591679 </i>
    <i name="Echarged">      0.00000000 </i>
    <i name="Edipol_quadrupol">      0.00000000 </i>
    <i name="Eion">      0.00000000 </i>
   </dipole>
   <energy>
    <i name="e_fr_energy">    -80.91223531 </i>
    <i name="e_wo_entrp">    -80.90135316 </i>
    <i name="e_0_energy">    -80.90679423 </i>
   </energy>
  </scstep>
  <scstep>
   <time name="diag">    0.05    0.08</time>
   <time name="diis">    0.04    0.05</time>
   <time name="orth">    0.00    0.00</time>
   <time name="total">    0.16    0.19</time>
   <dipole>
    <v name="dipole">      0.32408722      -0.32408722       0.45832854 </v>
    <i name="Tr[quadrupol]">   -311.25942013 </i>
    <i name="Echarged">      0.00000000 </i>
    <i name="Edipol_quadrupol">      0.00000000 </i>
    <i name="Eion">      0.00000000 </i>
   </dipole>
   <energy>
    <i name="e_fr_energy">    -80.98085886 </i>
    <i name="e_wo_entrp">    -80.88655378 </i>
    <i name="e_0_energy">    -80.93370632 </i>
   </energy>
  </scstep>
  <scstep>
   <time name="diag">    0.03    0.03</time>
   <time name="diis">    0.03    0.04</time>
   <time name="orth">    0.00    0.01</time>
   <time name="total">    0.13    0.16</time>
   <dipole>
    <v name="dipole">      0.32531062      -0.32531062       0.46005868 </v>
    <i name="Tr[quadrupol]">   -311.32798831 </i>
    <i name="Echarged">      0.00000000 </i>
    <i name="Edipol_quadrupol">      0.00000000 </i>
    <i name="Eion">      0.00000000 </i>
   </dipole>
   <energy>
    <i name="e_fr_energy">    -81.20897948 </i>
    <i name="e_wo_entrp">    -81.12786540 </i>
    <i name="e_0_energy">    -81.16842244 </i>
   </energy>
  </scstep>
  <scstep>
   <time name="diag">    0.03    0.03</time>
[...]
       <r>   -3.4404    1.0000 </r>
       <r>   -2.4804    1.0000 </r>
       <r>   -1.9458    1.0000 </r>
       <r>   -1.5459    1.0000 </r>
       <r>   -1.4710    1.0000 </r>
       <r>   -1.3176    1.0000 </r>
       <r>   -1.2481    1.0000 </r>
       <r>   -1.1195    1.0000 </r>
       <r>   -1.0703    1.0000 </r>
       <r>   -1.0775    1.0000 </r>
       <r>   -0.6053    1.0000 </r>
       <r>   -0.1818    1.0000 </r>
       <r>    0.4476    0.0009 </r>
       <r>    0.6232    0.0000 </r>
       <r>    1.4614    0.0000 </r>
       <r>    1.5756    0.0000 </r>
       <r>    1.8682    0.0000 </r>
       <r>    2.5253    0.0000 </r>
       <r>    3.2481    0.0000 </r>
       <r>    3.9803    0.0000 </r>
      </set>
      <set comment="kpoint 3">
       <r>  -18.9031    1.0000 </r>
       <r>  -17.0759    1.0000 </r>
       <r>  -16.0681    1.0000 </r>
       <r>  -14.9200    1.0000 </r>
       <r>   -8.0544    1.0000 </r>
       <r>   -7.3944    1.0000 </r>
       <r>   -6.8293    1.0000 </r>
       <r>   -5.5751    1.0000 </r>
       <r>   -5.2168    1.0000 </r>
       <r>   -4.4978    1.0000 </r>
       <r>   -4.0446    1.0000 </r>
       <r>   -3.5175    1.0000 </r>
       <r>   -3.2656    1.0000 </r>
       <r>   -2.5816    1.0000 </r>
       <r>   -1.7529    1.0000 </r>
       <r>   -1.6803    1.0000 </r>
       <r>   -1.4075    1.0000 </r>
       <r>   -1.4596    1.0000 </r>
       <r>   -1.2498    1.0000 </r>
       <r>   -1.0913    1.0000 </r>
       <r>   -1.0776    1.0000 </r>
       <r>   -1.0886    1.0000 </r>
       <r>   -0.7638    1.0000 </r>
       <r>   -0.3639    1.0000 </r>
       <r>    0.5733    0.0000 </r>
       <r>    1.0458    0.0000 </r>
       <r>    1.1001    0.0000 </r>
       <r>    1.5882    0.0000 </r>
       <r>    2.1910    0.0000 </r>
       <r>    2.8061    0.0000 </r>
       <r>    3.2082    0.0000 </r>
       <r>    3.7531    0.0000 </r>
      </set>
      <set comment="kpoint 4">
       <r>  -18.8165    1.0000 </r>
       <r>  -17.0011    1.0000 </r>
       <r>  -16.0385    1.0000 </r>
       <r>  -14.8818    1.0000 </r>
       <r>   -8.0309    1.0000 </r>
       <r>   -7.5559    1.0000 </r>
       <r>   -7.2110    1.0000 </r>
       <r>   -6.0327    1.0000 </r>
       <r>   -5.4203    1.0000 </r>
       <r>   -4.2036    1.0000 </r>
       <r>   -4.0034    1.0000 </r>
       <r>   -3.7035    1.0000 </r>
       <r>   -3.4613    1.0000 </r>
       <r>   -2.3614    1.0000 </r>
       <r>   -1.9831    1.0000 </r>
       <r>   -1.5419    1.0000 </r>
       <r>   -1.4820    1.0000 </r>
       <r>   -1.2607    1.0000 </r>
       <r>   -1.2540    1.0000 </r>
       <r>   -1.1325    1.0000 </r>
       <r>   -1.0696    1.0000 </r>
       <r>   -1.0844    1.0000 </r>
       <r>   -0.5614    1.0000 </r>
       <r>   -0.2353    1.0000 </r>
       <r>    0.4690    0.0003 </r>
       <r>    0.7381    0.0000 </r>
       <r>    1.1660    0.0000 </r>
       <r>    1.4331    0.0000 </r>
       <r>    2.1042    0.0000 </r>
       <r>    2.3139    0.0000 </r>
       <r>    3.2106    0.0000 </r>
       <r>    3.8935    0.0000 </r>
      </set>
     </set>
    </set>
   </array>
  </eigenvalues>
  <separator name="orbital magnetization" >
   <v name="MAGDIPOLOUT">      0.00000000      0.00000000      0.00000000</v>
  </separator>
  <dos>
   <i name="efermi">      0.22671778 </i>
   <total>
    <array>
     <dimension dim="1">gridpoints</dimension>
     <dimension dim="2">spin</dimension>
     <field>energy</field>
     <field>total</field>
     <field>integrated</field>
     <set>
      <set comment="spin 1">
       <r>   -20.0694     0.0000     0.0000 </r>
       <r>   -19.9854     0.0000     0.0000 </r>
       <r>   -19.9015     0.0000     0.0000 </r>
       <r>   -19.8175     0.0000     0.0000 </r>
       <r>   -19.7335     0.0000     0.0000 </r>
       <r>   -19.6495     0.0000     0.0000 </r>
       <r>   -19.5655     0.0000     0.0000 </r>
       <r>   -19.4815     0.0000     0.0000 </r>
       <r>   -19.3975     0.0000     0.0000 </r>
       <r>   -19.3135     0.0000     0.0000 </r>
       <r>   -19.2295     0.0000     0.0000 </r>
       <r>   -19.1455     0.0039     0.0003 </r>
       <r>   -19.0615     0.1377     0.0119 </r>
       <r>   -18.9775     1.4663     0.1351 </r>
       <r>   -18.8935     5.6348     0.6084 </r>
       <r>   -18.8095     9.1677     1.3784 </r>
       <r>   -18.7255     5.9928     1.8818 </r>
       <r>   -18.6415     1.3193     1.9926 </r>
       <r>   -18.5575     0.0860     1.9999 </r>
       <r>   -18.4735     0.0015     2.0000 </r>
       <r>   -18.3895     0.0000     2.0000 </r>
       <r>   -18.3055     0.0000     2.0000 </r>
       <r>   -18.2215     0.0000     2.0000 </r>
       <r>   -18.1375     0.0000     2.0000 </r>
       <r>   -18.0535     0.0000     2.0000 </r>
       <r>   -17.9695     0.0000     2.0000 </r>
       <r>   -17.8855     0.0000     2.0000 </r>
       <r>   -17.8015     0.0000     2.0000 </r>
       <r>   -17.7175     0.0000     2.0000 </r>
       <r>   -17.6335     0.0000     2.0000 </r>
       <r>   -17.5495     0.0000     2.0000 </r>
       <r>   -17.4655     0.0000     2.0000 </r>
       <r>   -17.3815     0.0000     2.0000 </r>
       <r>   -17.2975     0.0050     2.0004 </r>
       <r>   -17.2135     0.1636     2.0142 </r>
       <r>   -17.1295     1.6889     2.1560 </r>
       <r>   -17.0455     6.3213     2.6870 </r>
       <r>   -16.9615     9.3355     3.4712 </r>
       <r>   -16.8775     5.2273     3.9103 </r>
       <r>   -16.7935     1.0063     3.9948 </r>
       <r>   -16.7095     0.0610     3.9999 </r>
       <r>   -16.6255     0.0011     4.0000 </r>
       <r>   -16.5415     0.0000     4.0000 </r>
       <r>   -16.4575     0.0000     4.0000 </r>
       <r>   -16.3735     0.0001     4.0000 </r>
       <r>   -16.2895     0.0086     4.0007 </r>
       <r>   -16.2055     0.3107     4.0268 </r>
       <r>   -16.1215     3.1861     4.2944 </r>
       <r>   -16.0375     9.5286     5.0948 </r>
       <r>   -15.9535     8.4268     5.8027 </r>
       <r>   -15.8695     2.1847     5.9862 </r>
       <r>   -15.7855     0.1612     5.9997 </r>
       <r>   -15.7015     0.0033     6.0000 </r>
       <r>   -15.6175     0.0000     6.0000 </r>
       <r>   -15.5335     0.0000     6.0000 </r>
       <r>   -15.4495     0.0000     6.0000 </r>
       <r>   -15.3655     0.0000     6.0000 </r>
       <r>   -15.2816     0.0000     6.0000 </r>
       <r>   -15.1976     0.0010     6.0001 </r>
       <r>   -15.1136     0.0584     6.0050 </r>
       <r>   -15.0296     1.0197     6.0906 </r>
       <r>   -14.9456     5.6752     6.5674 </r>
       <r>   -14.8616    10.1843     7.4228 </r>
       <r>   -14.7776     5.8055     7.9105 </r>
       <r>   -14.6936     1.0136     7.9956 </r>
       <r>   -14.6096     0.0516     7.9999 </r>
       <r>   -14.5256     0.0007     8.0000 </r>
       <r>   -14.4416     0.0000     8.0000 </r>
       <r>   -14.3576     0.0000     8.0000 </r>
       <r>   -14.2736     0.0000     8.0000 </r>
       <r>   -14.1896     0.0000     8.0000 </r>
       <r>   -14.1056     0.0000     8.0000 </r>
       <r>   -14.0216     0.0000     8.0000 </r>
       <r>   -13.9376     0.0000     8.0000 </r>
       <r>   -13.8536     0.0000     8.0000 </r>
       <r>   -13.7696     0.0000     8.0000 </r>
       <r>   -13.6856     0.0000     8.0000 </r>
       <r>   -13.6016     0.0000     8.0000 </r>
       <r>   -13.5176     0.0000     8.0000 </r>
       <r>   -13.4336     0.0000     8.0000 </r>
       <r>   -13.3496     0.0000     8.0000 </r>
       <r>   -13.2656     0.0000     8.0000 </r>
       <r>   -13.1816     0.0000     8.0000 </r>
       <r>   -13.0976     0.0000     8.0000 </r>
       <r>   -13.0136     0.0000     8.0000 </r>
       <r>   -12.9296     0.0000     8.0000 </r>
       <r>   -12.8456     0.0000     8.0000 </r>
       <r>   -12.7616     0.0000     8.0000 </r>
       <r>   -12.6776     0.0000     8.0000 </r>
       <r>   -12.5936     0.0000     8.0000 </r>
       <r>   -12.5096     0.0000     8.0000 </r>
       <r>   -12.4256     0.0000     8.0000 </r>
       <r>   -12.3416     0.0000     8.0000 </r>
       <r>   -12.2576     0.0000     8.0000 </r>
       <r>   -12.1736     0.0000     8.0000 </r>
       <r>   -12.0896     0.0000     8.0000 </r>
       <r>   -12.0056     0.0000     8.0000 </r>
       <r>   -11.9216     0.0000     8.0000 </r>
       <r>   -11.8376     0.0000     8.0000 </r>
       <r>   -11.7536     0.0000     8.0000 </r>
       <r>   -11.6696     0.0000     8.0000 </r>
       <r>   -11.5856     0.0000     8.0000 </r>
       <r>   -11.5016     0.0000     8.0000 </r>
       <r>   -11.4176     0.0000     8.0000 </r>
       <r>   -11.3336     0.0000     8.0000 </r>
       <r>   -11.2496     0.0000     8.0000 </r>
       <r>   -11.1656     0.0000     8.0000 </r>
       <r>   -11.0816     0.0000     8.0000 </r>
       <r>   -10.9976     0.0000     8.0000 </r>
       <r>   -10.9136     0.0000     8.0000 </r>
       <r>   -10.8296     0.0000     8.0000 </r>
       <r>   -10.7457     0.0000     8.0000 </r>
       <r>   -10.6617     0.0000     8.0000 </r>
       <r>   -10.5777     0.0000     8.0000 </r>
       <r>   -10.4937     0.0000     8.0000 </r>
       <r>   -10.4097     0.0000     8.0000 </r>
       <r>   -10.3257     0.0000     8.0000 </r>
       <r>   -10.2417     0.0000     8.0000 </r>
       <r>   -10.1577     0.0000     8.0000 </r>
       <r>   -10.0737     0.0000     8.0000 </r>
       <r>    -9.9897     0.0000     8.0000 </r>
       <r>    -9.9057     0.0000     8.0000 </r>
       <r>    -9.8217     0.0000     8.0000 </r>
       <r>    -9.7377     0.0000     8.0000 </r>
       <r>    -9.6537     0.0000     8.0000 </r>
       <r>    -9.5697     0.0000     8.0000 </r>
       <r>    -9.4857     0.0000     8.0000 </r>
       <r>    -9.4017     0.0000     8.0000 </r>
       <r>    -9.3177     0.0000     8.0000 </r>
       <r>    -9.2337     0.0000     8.0000 </r>
       <r>    -9.1497     0.0000     8.0000 </r>
       <r>    -9.0657     0.0000     8.0000 </r>
       <r>    -8.9817     0.0000     8.0000 </r>
       <r>    -8.8977     0.0000     8.0000 </r>
       <r>    -8.8137     0.0000     8.0000 </r>
       <r>    -8.7297     0.0000     8.0000 </r>
       <r>    -8.6457     0.0000     8.0000 </r>
       <r>    -8.5617     0.0000     8.0000 </r>
       <r>    -8.4777     0.0000     8.0000 </r>
       <r>    -8.3937     0.0000     8.0000 </r>
       <r>    -8.3097     0.0020     8.0002 </r>
       <r>    -8.2257     0.1134     8.0097 </r>
       <r>    -8.1417     1.7653     8.1580 </r>
       <r>    -8.0577     7.7927     8.8126 </r>
       <r>    -7.9737     9.9919     9.6519 </r>
       <r>    -7.8897     3.7359     9.9657 </r>
       <r>    -7.8057     0.4700    10.0051 </r>
       <r>    -7.7217     0.8455    10.0762 </r>
       <r>    -7.6377     3.3878    10.3607 </r>
       <r>    -7.5537     6.0126    10.8658 </r>
       <r>    -7.4697     5.1165    11.2956 </r>
       <r>    -7.3857     3.3386    11.5760 </r>
       <r>    -7.3017     2.9528    11.8240 </r>
       <r>    -7.2177     4.3193    12.1868 </r>
       <r>    -7.1337     4.5495    12.5690 </r>
       <r>    -7.0497     3.0553    12.8256 </r>
       <r>    -6.9657     3.7063    13.1370 </r>
       <r>    -6.8817     3.7338    13.4506 </r>
       <r>    -6.7977     3.9249    13.7803 </r>
       <r>    -6.7137     2.2122    13.9661 </r>
       <r>    -6.6297     0.3849    13.9984 </r>
       <r>    -6.5457     0.0187    14.0000 </r>
       <r>    -6.4617     0.0108    14.0009 </r>
       <r>    -6.3777     0.1801    14.0160 </r>
       <r>    -6.2937     0.8494    14.0874 </r>
       <r>    -6.2098     1.1943    14.1877 </r>
       <r>    -6.1258     1.3590    14.3018 </r>
       <r>    -6.0418     3.8192    14.6227 </r>
       <r>    -5.9578     4.6433    15.0127 </r>
       <r>    -5.8738     3.1690    15.2789 </r>
       <r>    -5.7898     3.4069    15.5650 </r>
       <r>    -5.7058     3.3891    15.8497 </r>
       <r>    -5.6218     2.8477    16.0889 </r>
       <r>    -5.5378     3.1467    16.3532 </r>
       <r>    -5.4538     4.2255    16.7082 </r>
       <r>    -5.3698     5.0322    17.1309 </r>
       <r>    -5.2858     3.3510    17.4124 </r>
       <r>    -5.2018     3.5779    17.7129 </r>
       <r>    -5.1178     2.7339    17.9425 </r>
       <r>    -5.0338     0.6415    17.9964 </r>
       <r>    -4.9498     0.0419    17.9999 </r>
       <r>    -4.8658     0.0007    18.0000 </r>
       <r>    -4.7818     0.0002    18.0000 </r>
       <r>    -4.6978     0.0123    18.0010 </r>
       <r>    -4.6138     0.2605    18.0229 </r>
       <r>    -4.5298     1.5769    18.1554 </r>
       <r>    -4.4458     3.0835    18.4144 </r>
       <r>    -4.3618     2.7718    18.6472 </r>
       <r>    -4.2778     3.8684    18.9722 </r>
       <r>    -4.1938     6.8185    19.5449 </r>
       <r>    -4.1098     6.7342    20.1106 </r>
       <r>    -4.0258     8.6854    20.8401 </r>
       <r>    -3.9418     8.6130    21.5636 </r>
       <r>    -3.8578     4.1192    21.9096 </r>
       <r>    -3.7738     3.9105    22.2381 </r>
       <r>    -3.6898     7.2157    22.8442 </r>
       <r>    -3.6058     7.1146    23.4418 </r>
       <r>    -3.5218     6.3996    23.9793 </r>
       <r>    -3.4378     8.9877    24.7343 </r>
       <r>    -3.3538     6.4927    25.2797 </r>
       <r>    -3.2698     3.8861    25.6061 </r>
       <r>    -3.1858     3.3438    25.8870 </r>
       <r>    -3.1018     1.2092    25.9885 </r>
       <r>    -3.0178     0.1322    25.9996 </r>
       <r>    -2.9338     0.0042    26.0000 </r>
       <r>    -2.8498     0.0004    26.0000 </r>
       <r>    -2.7658     0.0240    26.0021 </r>
       <r>    -2.6818     0.4008    26.0357 </r>
       <r>    -2.5978     2.0003    26.2037 </r>
       <r>    -2.5138     3.8220    26.5248 </r>
       <r>    -2.4298     4.8240    26.9300 </r>
       <r>    -2.3458     6.1483    27.4464 </r>
       <r>    -2.2618     4.8398    27.8530 </r>
       <r>    -2.1778     1.5881    27.9864 </r>
       <r>    -2.0938     0.8722    28.0596 </r>
       <r>    -2.0098     3.9934    28.3951 </r>
       <r>    -1.9258     6.9916    28.9823 </r>
       <r>    -1.8418     4.6589    29.3737 </r>
       <r>    -1.7578     4.3647    29.7403 </r>
       <r>    -1.6739     5.8529    30.2319 </r>
       <r>    -1.5899     8.3667    30.9347 </r>
       <r>    -1.5059    15.6864    32.2524 </r>
       <r>    -1.4219    17.8365    33.7506 </r>
       <r>    -1.3379    14.5589    34.9735 </r>
       <r>    -1.2539    18.8361    36.5557 </r>
       <r>    -1.1699    23.1615    38.5013 </r>
       <r>    -1.0859    30.8001    41.0884 </r>
       <r>    -1.0019    26.2536    43.2937 </r>
       <r>    -0.9179     7.7950    43.9484 </r>
       <r>    -0.8339     1.5138    44.0756 </r>
       <r>    -0.7499     2.8636    44.3161 </r>
       <r>    -0.6659     4.5766    44.7005 </r>
       <r>    -0.5819     6.8351    45.2747 </r>
       <r>    -0.4979     6.4866    45.8195 </r>
       <r>    -0.4139     3.2678    46.0940 </r>
       <r>    -0.3299     3.5526    46.3924 </r>
       <r>    -0.2459     5.9948    46.8960 </r>
       <r>    -0.1619     6.8521    47.4716 </r>
       <r>    -0.0779     3.2895    47.7479 </r>
       <r>     0.0061     1.2700    47.8546 </r>
       <r>     0.0901     1.1822    47.9539 </r>
       <r>     0.1741     0.4900    47.9950 </r>
       <r>     0.2581     0.0920    48.0027 </r>
       <r>     0.3421     0.7140    48.0627 </r>
       <r>     0.4261     4.2719    48.4216 </r>
       <r>     0.5101     8.3979    49.1270 </r>
       <r>     0.5941     8.3686    49.8299 </r>
       <r>     0.6781     7.4579    50.4563 </r>
       <r>     0.7621     6.3672    50.9912 </r>
       <r>     0.8461     3.4652    51.2823 </r>
       <r>     0.9301     1.6411    51.4201 </r>
       <r>     1.0141     4.8787    51.8299 </r>
       <r>     1.0981     9.1259    52.5965 </r>
       <r>     1.1821     8.7875    53.3346 </r>
       <r>     1.2661     4.4978    53.7124 </r>
       <r>     1.3501     2.3116    53.9066 </r>
       <r>     1.4341     5.8632    54.3991 </r>
       <r>     1.5181     8.0942    55.0790 </r>
       <r>     1.6021     6.6444    55.6371 </r>
       <r>     1.6861     3.5881    55.9385 </r>
       <r>     1.7701     1.1268    56.0331 </r>
       <r>     1.8541     1.8332    56.1871 </r>
       <r>     1.9381     2.3089    56.3811 </r>
       <r>     2.0221     2.0205    56.5508 </r>
       <r>     2.1061     4.7617    56.9507 </r>
       <r>     2.1901     6.4376    57.4915 </r>
       <r>     2.2741     6.1034    58.0042 </r>
       <r>     2.3581     6.7683    58.5727 </r>
       <r>     2.4421     5.0104    58.9936 </r>
       <r>     2.5261     3.6865    59.3032 </r>
       <r>     2.6101     2.3802    59.5031 </r>
       <r>     2.6941     0.8774    59.5768 </r>
       <r>     2.7781     1.5755    59.7092 </r>
       <r>     2.8620     2.3499    59.9066 </r>
       <r>     2.9460     1.2916    60.0151 </r>
       <r>     3.0300     1.2192    60.1175 </r>
       <r>     3.1140     2.4774    60.3256 </r>
       <r>     3.1980     6.8999    60.9052 </r>
       <r>     3.2820     8.9256    61.6549 </r>
       <r>     3.3660     3.6405    61.9607 </r>
       <r>     3.4500     0.4513    61.9986 </r>
       <r>     3.5340     0.0217    62.0004 </r>
       <r>     3.6180     0.1439    62.0125 </r>
       <r>     3.7020     1.1307    62.1075 </r>
       <r>     3.7860     3.0173    62.3609 </r>
       <r>     3.8700     5.1047    62.7897 </r>
       <r>     3.9540     7.1458    63.3900 </r>
       <r>     4.0380     5.3544    63.8397 </r>
       <r>     4.1220     1.7138    63.9837 </r>
       <r>     4.2060     0.1884    63.9995 </r>
       <r>     4.2900     0.0060    64.0000 </r>
       <r>     4.3740     0.0001    64.0000 </r>
       <r>     4.4580     0.0000    64.0000 </r>
       <r>     4.5420     0.0000    64.0000 </r>
       <r>     4.6260     0.0000    64.0000 </r>
       <r>     4.7100     0.0000    64.0000 </r>
       <r>     4.7940     0.0000    64.0000 </r>
       <r>     4.8780     0.0000    64.0000 </r>
       <r>     4.9620     0.0000    64.0000 </r>
       <r>     5.0460     0.0000    64.0000 </r>
       <r>     5.1300     0.0000    64.0000 </r>
      </set>
     </set>
    </array>
   </total>
  </dos>
 </calculation>
 <structure name="finalpos" >
  <crystal>
   <varray name="basis" >
    <v>      -3.15184252      -3.15184252       0.00000000 </v>
    <v>       4.45737844      -4.45737844       0.00000000 </v>
    <v>      11.82831571     -11.82831571      16.72776449 </v>
   </varray>
   <i name="volume">    470.01521889 </i>
   <varray name="rec_basis" >
    <v>      -0.15863737      -0.15863737       0.00000000 </v>
    <v>       0.11217356      -0.11217356      -0.15863737 </v>
    <v>       0.00000000       0.00000000       0.05978085 </v>
   </varray>
  </crystal>
  <varray name="positions" >
   <v>       0.50000017       0.49999983       0.35868511 </v>
   <v>       0.00000010       0.49999983       0.45289504 </v>
   <v>       0.50000017       0.99999990       0.35868511 </v>
   <v>       0.50000017       0.49999983       0.45289504 </v>
   <v>       0.00000010       0.49999983       0.54710496 </v>
   <v>       0.50000017       0.99999990       0.45289504 </v>
   <v>       0.50000017       0.49999983       0.54710496 </v>
   <v>       0.00000010       0.49999983       0.64131489 </v>
   <v>       0.50000017       0.99999990       0.54710496 </v>
   <v>       0.50000017       0.49999983       0.45289504 </v>
   <v>       0.50000017       0.49999983       0.54710496 </v>
   <v>       0.50000017       0.49999983       0.64131489 </v>
   <v>       0.00000010       0.99999990       0.45289501 </v>
   <v>       0.00000010       0.99999990       0.54710494 </v>
   <v>       0.00000010       0.99999990       0.64131486 </v>
  </varray>
 </structure>
</modeling>
