unknown system                          
           1
    -3.151843   -3.151843    0.000000
     4.457378   -4.457378    0.000000
    11.828316  -11.828316   16.727764
   Na   O    Cl
     9     3     3
Direct configuration=     1
   0.50000017  0.49999983  0.35868511
   0.00000010  0.49999983  0.45289504
   0.50000017  0.99999990  0.35868511
   0.50000017  0.49999983  0.45289504
   0.00000010  0.49999983  0.54710496
   0.50000017  0.99999990  0.45289504
   0.50000017  0.49999983  0.54710496
   0.00000010  0.49999983  0.64131489
   0.50000017  0.99999990  0.54710496
   0.50000017  0.49999983  0.45289504
   0.50000017  0.49999983  0.54710496
   0.50000017  0.49999983  0.64131489
   0.00000010  0.99999990  0.45289501
   0.00000010  0.99999990  0.54710494
   0.00000010  0.99999990  0.64131486
