  12  12   0   0
  0.6433404E+02  0.5933265E-09  0.5933265E-09  0.4385959E-08  0.5000000E-15
  1.000000000000000E-004
  CAR 
 unknown system                          
      2.90771945     -4.80780288  301     -0.85471712      1.00000000
     -4.808  0.0000E+00  0.0000E+00
     -4.782  0.0000E+00  0.0000E+00
     -4.756  0.0000E+00  0.0000E+00
     -4.731  0.0000E+00  0.0000E+00
     -4.705  0.0000E+00  0.0000E+00
     -4.679  0.0000E+00  0.0000E+00
     -4.653  0.0000E+00  0.0000E+00
     -4.628  0.0000E+00  0.0000E+00
     -4.602  0.0000E+00  0.0000E+00
     -4.576  0.0000E+00  0.0000E+00
     -4.551  0.0000E+00  0.0000E+00
     -4.525  0.0000E+00  0.0000E+00
     -4.499  0.0000E+00  0.0000E+00
     -4.473  0.0000E+00  0.0000E+00
     -4.448  0.0000E+00  0.0000E+00
     -4.422  0.0000E+00  0.0000E+00
     -4.396  0.4796E-15  0.1234E-16
     -4.371  0.7195E-14  0.1974E-15
     -4.345  0.1252E-12  0.3417E-14
     -4.319  0.1930E-11  0.5304E-13
     -4.293  0.2609E-10  0.7241E-12
     -4.268  0.3094E-09  0.8681E-11
     -4.242  0.3218E-08  0.9143E-10
     -4.216  0.2935E-07  0.8463E-09
     -4.191  0.2348E-06  0.6886E-08
     -4.165  0.1648E-05  0.4927E-07
     -4.139  0.1014E-04  0.3102E-06
     -4.113  0.5478E-04  0.1719E-05
     -4.088  0.2595E-03  0.8392E-05
     -4.062  0.1078E-02  0.3612E-04
     -4.036  0.3930E-02  0.1372E-03
     -4.011  0.1257E-01  0.4604E-03
     -3.985  0.3525E-01  0.1367E-02
     -3.959  0.8677E-01  0.3599E-02
     -3.933  0.1873E+00  0.8417E-02
     -3.908  0.3549E+00  0.1754E-01
     -3.882  0.5898E+00  0.3271E-01
     -3.856  0.8601E+00  0.5483E-01
     -3.831  0.1100E+01  0.8313E-01
     -3.805  0.1235E+01  0.1149E+00
     -3.779  0.1216E+01  0.1462E+00
     -3.753  0.1051E+01  0.1732E+00
     -3.728  0.7965E+00  0.1937E+00
     -3.702  0.5298E+00  0.2073E+00
     -3.676  0.3095E+00  0.2153E+00
     -3.650  0.1598E+00  0.2194E+00
     -3.625  0.7649E-01  0.2213E+00
     -3.599  0.4475E-01  0.2225E+00
     -3.573  0.5505E-01  0.2239E+00
     -3.548  0.1108E+00  0.2268E+00
     -3.522  0.2257E+00  0.2326E+00
     -3.496  0.4117E+00  0.2432E+00
     -3.470  0.6608E+00  0.2601E+00
     -3.445  0.9315E+00  0.2841E+00
     -3.419  0.1155E+01  0.3138E+00
     -3.393  0.1267E+01  0.3464E+00
     -3.368  0.1252E+01  0.3786E+00
     -3.342  0.1180E+01  0.4089E+00
     -3.316  0.1202E+01  0.4399E+00
     -3.290  0.1511E+01  0.4787E+00
     -3.265  0.2271E+01  0.5371E+00
     -3.239  0.3512E+01  0.6274E+00
     -3.213  0.5054E+01  0.7574E+00
     -3.188  0.6500E+01  0.9246E+00
     -3.162  0.7375E+01  0.1114E+01
     -3.136  0.7354E+01  0.1303E+01
     -3.110  0.6437E+01  0.1469E+01
     -3.085  0.4944E+01  0.1596E+01
     -3.059  0.3332E+01  0.1682E+01
     -3.033  0.1973E+01  0.1733E+01
     -3.008  0.1034E+01  0.1759E+01
     -2.982  0.5065E+00  0.1772E+01
     -2.956  0.3127E+00  0.1780E+01
     -2.930  0.4058E+00  0.1791E+01
     -2.905  0.8219E+00  0.1812E+01
     -2.879  0.1661E+01  0.1854E+01
     -2.853  0.3000E+01  0.1932E+01
     -2.827  0.4766E+01  0.2054E+01
     -2.802  0.6645E+01  0.2225E+01
     -2.776  0.8130E+01  0.2434E+01
     -2.750  0.8726E+01  0.2659E+01
     -2.725  0.8218E+01  0.2870E+01
     -2.699  0.6791E+01  0.3045E+01
     -2.673  0.4923E+01  0.3171E+01
     -2.647  0.3131E+01  0.3252E+01
     -2.622  0.1747E+01  0.3297E+01
     -2.596  0.8556E+00  0.3319E+01
     -2.570  0.3675E+00  0.3328E+01
     -2.545  0.1385E+00  0.3332E+01
     -2.519  0.4580E-01  0.3333E+01
     -2.493  0.1329E-01  0.3333E+01
     -2.467  0.3422E-02  0.3333E+01
     -2.442  0.9846E-03  0.3333E+01
     -2.416  0.1269E-02  0.3333E+01
     -2.390  0.4819E-02  0.3333E+01
     -2.365  0.1798E-01  0.3334E+01
     -2.339  0.5916E-01  0.3335E+01
     -2.313  0.1708E+00  0.3340E+01
     -2.287  0.4325E+00  0.3351E+01
     -2.262  0.9609E+00  0.3376E+01
     -2.236  0.1873E+01  0.3424E+01
     -2.210  0.3203E+01  0.3506E+01
     -2.185  0.4807E+01  0.3630E+01
     -2.159  0.6331E+01  0.3793E+01
     -2.133  0.7323E+01  0.3981E+01
     -2.107  0.7460E+01  0.4173E+01
     -2.082  0.6747E+01  0.4346E+01
     -2.056  0.5562E+01  0.4489E+01
     -2.030  0.4486E+01  0.4605E+01
     -2.004  0.4050E+01  0.4709E+01
     -1.979  0.4511E+01  0.4825E+01
     -1.953  0.5740E+01  0.4973E+01
     -1.927  0.7261E+01  0.5159E+01
     -1.902  0.8429E+01  0.5376E+01
     -1.876  0.8712E+01  0.5600E+01
     -1.850  0.7937E+01  0.5804E+01
     -1.824  0.6357E+01  0.5968E+01
     -1.799  0.4471E+01  0.6083E+01
     -1.773  0.2762E+01  0.6154E+01
     -1.747  0.1506E+01  0.6193E+01
     -1.722  0.7472E+00  0.6212E+01
     -1.696  0.4059E+00  0.6222E+01
     -1.670  0.3995E+00  0.6233E+01
     -1.644  0.7166E+00  0.6251E+01
     -1.619  0.1414E+01  0.6287E+01
     -1.593  0.2543E+01  0.6353E+01
     -1.567  0.4042E+01  0.6457E+01
     -1.542  0.5653E+01  0.6602E+01
     -1.516  0.6967E+01  0.6781E+01
     -1.490  0.7609E+01  0.6977E+01
     -1.464  0.7471E+01  0.7169E+01
     -1.439  0.6834E+01  0.7345E+01
     -1.413  0.6263E+01  0.7506E+01
     -1.387  0.6330E+01  0.7669E+01
     -1.362  0.7316E+01  0.7857E+01
     -1.336  0.9072E+01  0.8090E+01
     -1.310  0.1108E+02  0.8375E+01
     -1.284  0.1267E+02  0.8701E+01
     -1.259  0.1328E+02  0.9043E+01
     -1.233  0.1268E+02  0.9369E+01
     -1.207  0.1096E+02  0.9651E+01
     -1.182  0.8563E+01  0.9871E+01
     -1.156  0.6031E+01  0.1003E+02
     -1.130  0.3843E+01  0.1012E+02
     -1.104  0.2286E+01  0.1018E+02
     -1.079  0.1445E+01  0.1022E+02
     -1.053  0.1292E+01  0.1025E+02
     -1.027  0.1803E+01  0.1030E+02
     -1.001  0.3018E+01  0.1038E+02
     -0.976  0.5000E+01  0.1051E+02
     -0.950  0.7698E+01  0.1070E+02
     -0.924  0.1078E+02  0.1098E+02
     -0.899  0.1356E+02  0.1133E+02
     -0.873  0.1522E+02  0.1172E+02
     -0.847  0.1515E+02  0.1211E+02
     -0.821  0.1333E+02  0.1245E+02
     -0.796  0.1034E+02  0.1272E+02
     -0.770  0.7058E+01  0.1290E+02
     -0.744  0.4239E+01  0.1301E+02
     -0.719  0.2238E+01  0.1307E+02
     -0.693  0.1038E+01  0.1309E+02
     -0.667  0.4232E+00  0.1311E+02
     -0.641  0.1523E+00  0.1311E+02
     -0.616  0.5142E-01  0.1311E+02
     -0.590  0.2780E-01  0.1311E+02
     -0.564  0.5250E-01  0.1311E+02
     -0.539  0.1463E+00  0.1312E+02
     -0.513  0.3775E+00  0.1313E+02
     -0.487  0.8600E+00  0.1315E+02
     -0.461  0.1725E+01  0.1319E+02
     -0.436  0.3052E+01  0.1327E+02
     -0.410  0.4786E+01  0.1339E+02
     -0.384  0.6698E+01  0.1357E+02
     -0.359  0.8456E+01  0.1378E+02
     -0.333  0.9782E+01  0.1404E+02
     -0.307  0.1056E+02  0.1431E+02
     -0.281  0.1081E+02  0.1459E+02
     -0.256  0.1057E+02  0.1486E+02
     -0.230  0.9814E+01  0.1511E+02
     -0.204  0.8569E+01  0.1533E+02
     -0.178  0.7022E+01  0.1551E+02
     -0.153  0.5563E+01  0.1565E+02
     -0.127  0.4654E+01  0.1577E+02
     -0.101  0.4609E+01  0.1589E+02
     -0.076  0.5419E+01  0.1603E+02
     -0.050  0.6724E+01  0.1620E+02
     -0.024  0.7943E+01  0.1641E+02
      0.002  0.8510E+01  0.1663E+02
      0.027  0.8129E+01  0.1684E+02
      0.053  0.6887E+01  0.1701E+02
      0.079  0.5167E+01  0.1715E+02
      0.104  0.3436E+01  0.1723E+02
      0.130  0.2036E+01  0.1729E+02
      0.156  0.1113E+01  0.1732E+02
      0.182  0.6656E+00  0.1733E+02
      0.207  0.6550E+00  0.1735E+02
      0.233  0.1081E+01  0.1738E+02
      0.259  0.1977E+01  0.1743E+02
      0.284  0.3331E+01  0.1751E+02
      0.310  0.4983E+01  0.1764E+02
      0.336  0.6603E+01  0.1781E+02
      0.362  0.7816E+01  0.1801E+02
      0.387  0.8419E+01  0.1823E+02
      0.413  0.8527E+01  0.1845E+02
      0.439  0.8504E+01  0.1867E+02
      0.464  0.8711E+01  0.1889E+02
      0.490  0.9266E+01  0.1913E+02
      0.516  0.1003E+02  0.1939E+02
      0.542  0.1077E+02  0.1966E+02
      0.567  0.1137E+02  0.1996E+02
      0.593  0.1189E+02  0.2026E+02
      0.619  0.1240E+02  0.2058E+02
      0.644  0.1297E+02  0.2092E+02
      0.670  0.1357E+02  0.2126E+02
      0.696  0.1412E+02  0.2163E+02
      0.722  0.1451E+02  0.2200E+02
      0.747  0.1468E+02  0.2238E+02
      0.773  0.1467E+02  0.2276E+02
      0.799  0.1470E+02  0.2313E+02
      0.825  0.1487E+02  0.2352E+02
      0.850  0.1508E+02  0.2390E+02
      0.876  0.1491E+02  0.2429E+02
      0.902  0.1391E+02  0.2464E+02
      0.927  0.1193E+02  0.2495E+02
      0.953  0.9246E+01  0.2519E+02
      0.979  0.6408E+01  0.2535E+02
      1.005  0.3956E+01  0.2546E+02
      1.030  0.2192E+01  0.2551E+02
      1.056  0.1159E+01  0.2554E+02
      1.082  0.7641E+00  0.2556E+02
      1.107  0.9279E+00  0.2559E+02
      1.133  0.1652E+01  0.2563E+02
      1.159  0.2989E+01  0.2571E+02
      1.185  0.4943E+01  0.2583E+02
      1.210  0.7370E+01  0.2602E+02
      1.236  0.9964E+01  0.2628E+02
      1.262  0.1235E+02  0.2660E+02
      1.287  0.1420E+02  0.2696E+02
      1.313  0.1535E+02  0.2736E+02
      1.339  0.1576E+02  0.2776E+02
      1.365  0.1549E+02  0.2816E+02
      1.390  0.1466E+02  0.2854E+02
      1.416  0.1340E+02  0.2888E+02
      1.442  0.1192E+02  0.2919E+02
      1.467  0.1044E+02  0.2946E+02
      1.493  0.9094E+01  0.2969E+02
      1.519  0.7857E+01  0.2989E+02
      1.545  0.6619E+01  0.3006E+02
      1.570  0.5293E+01  0.3020E+02
      1.596  0.3915E+01  0.3030E+02
      1.622  0.2634E+01  0.3037E+02
      1.648  0.1614E+01  0.3041E+02
      1.673  0.9597E+00  0.3043E+02
      1.699  0.7083E+00  0.3045E+02
      1.725  0.8732E+00  0.3047E+02
      1.750  0.1483E+01  0.3051E+02
      1.776  0.2561E+01  0.3058E+02
      1.802  0.4052E+01  0.3068E+02
      1.828  0.5743E+01  0.3083E+02
      1.853  0.7255E+01  0.3102E+02
      1.879  0.8159E+01  0.3123E+02
      1.905  0.8159E+01  0.3144E+02
      1.930  0.7250E+01  0.3162E+02
      1.956  0.5721E+01  0.3177E+02
      1.982  0.4004E+01  0.3187E+02
      2.008  0.2485E+01  0.3194E+02
      2.033  0.1366E+01  0.3197E+02
      2.059  0.6652E+00  0.3199E+02
      2.085  0.2865E+00  0.3200E+02
      2.110  0.1091E+00  0.3200E+02
      2.136  0.3674E-01  0.3200E+02
      2.162  0.1092E-01  0.3200E+02
      2.188  0.2865E-02  0.3200E+02
      2.213  0.6630E-03  0.3200E+02
      2.239  0.1353E-03  0.3200E+02
      2.265  0.2431E-04  0.3200E+02
      2.290  0.3849E-05  0.3200E+02
      2.316  0.5363E-06  0.3200E+02
      2.342  0.6575E-07  0.3200E+02
      2.368  0.7089E-08  0.3200E+02
      2.393  0.6720E-09  0.3200E+02
      2.419  0.5598E-10  0.3200E+02
      2.445  0.4092E-11  0.3200E+02
      2.471  0.2648E-12  0.3200E+02
      2.496  0.1535E-13  0.3200E+02
      2.522  0.0000E+00  0.3200E+02
      2.548  0.0000E+00  0.3200E+02
      2.573  0.0000E+00  0.3200E+02
      2.599  0.0000E+00  0.3200E+02
      2.625  0.0000E+00  0.3200E+02
      2.651  0.0000E+00  0.3200E+02
      2.676  0.0000E+00  0.3200E+02
      2.702  0.0000E+00  0.3200E+02
      2.728  0.0000E+00  0.3200E+02
      2.753  0.0000E+00  0.3200E+02
      2.779  0.0000E+00  0.3200E+02
      2.805  0.0000E+00  0.3200E+02
      2.831  0.0000E+00  0.3200E+02
      2.856  0.0000E+00  0.3200E+02
      2.882  0.0000E+00  0.3200E+02
      2.908  0.0000E+00  0.3200E+02
