   12   12    1    1
  0.6433404E+02  0.5933265E-09  0.5933265E-09  0.4385959E-08  0.5000000E-15
  1.000000000000000E-004
  CAR 
 unknown system                          
     12      4     16
 
  0.0000000E+00  0.0000000E+00  0.0000000E+00  0.1111111E+00
    1       -3.807803   1.000000
    2       -3.403150   1.000000
    3       -2.764501   1.000000
    4       -1.902237   1.000000
    5       -0.967019   0.943878
    6       -0.004857   0.000000
    7        0.816747   0.000000
    8        1.518749   0.000000
    9        1.518755   0.000000
   10        1.531081   0.000000
   11        1.531096   0.000000
   12        1.831856   0.000000
   13        1.875086   0.000000
   14        1.875093   0.000000
   15        1.907713   0.000000
   16        1.907719   0.000000
 
  0.3333333E+00  0.0000000E+00  0.6661338E-15  0.4444444E+00
    1       -3.162253   1.000000
    2       -2.761729   1.000000
    3       -2.130509   1.000000
    4       -1.305362   1.000000
    5       -1.235130   1.000000
    6       -0.872094   0.597063
    7       -0.352291   0.000000
    8       -0.237097   0.000000
    9        0.362478   0.000000
   10        0.517058   0.000000
   11        0.631662   0.000000
   12        0.731298   0.000000
   13        0.869714   0.000000
   14        1.246747   0.000000
   15        1.325794   0.000000
   16        1.397603   0.000000
 
  0.3333333E+00  0.3333333E+00  0.1332268E-14  0.2222222E+00
    1       -3.162251   1.000000
    2       -2.761738   1.000000
    3       -2.130462   1.000000
    4       -1.305529   1.000000
    5       -1.235249   1.000000
    6       -0.872096   0.597070
    7       -0.350675   0.000000
    8       -0.236872   0.000000
    9        0.362477   0.000000
   10        0.513977   0.000000
   11        0.623776   0.000000
   12        0.731304   0.000000
   13        0.869468   0.000000
   14        1.251586   0.000000
   15        1.325782   0.000000
   16        1.419573   0.000000
 
 -0.3333333E+00  0.3333333E+00  0.3514181E-15  0.2222222E+00
    1       -1.896914   1.000000
    2       -1.890340   1.000000
    3       -1.890309   1.000000
    4       -1.510558   1.000000
    5       -1.496386   1.000000
    6       -1.496382   1.000000
    7       -0.880954   0.644697
    8       -0.862950   0.546346
    9       -0.862857   0.545822
   10       -0.020579   0.000000
   11       -0.020202   0.000000
   12        0.019352   0.000000
   13        0.749949   0.000000
   14        0.897781   0.000000
   15        0.901317   0.000000
   16        1.875368   0.000000
