 vasp.6.2.1 16May21 (build Dec 23 2021 00:35:04) complex                        
  
 executed on             LinuxIFC date 2023.03.08  11:52:27
 running on  128 total cores
 distrk:  each k-point on  128 cores,    1 groups
 distr:  one band on NCORE=  16 cores,    8 groups


--------------------------------------------------------------------------------------------------------


 INCAR:
   AMIN = 0.010000
   ENCUT = 400.000000
   KSPACING = 0.500000
   SIGMA = 0.100000
   EDIFF = 1.00e-08
   EDIFFG = -1.00e-02
   ALGO = Fast
   GGA = PE
   PREC = Normal
   IBRION = -1
   IDIPOL = 3
   ISIF = 3
   ISMEAR = 0
   ISPIN = 0
   LMAXMIX = 6
   NELM = 150
   NPAR = 8
   NSW = 0
   NWRITE = 1
   DIPOL = 0.2500 0.2500 0.5000
   KGAMMA = .TRUE.
   LASPH = .TRUE.
   LCHARG = .FALSE.
   LDIPOL = .TRUE.
   LWAVE = .FALSE.
   LREAL = AUTO

 POTCAR:    PAW_PBE Na 08Apr2002                  
 POTCAR:    PAW_PBE Na 08Apr2002                  
  local pseudopotential read in
  partial core-charges read in
  partial kinetic energy density read in
  atomic valenz-charges read in
  non local Contribution for L=           0  read in
    real space projection operators read in
  non local Contribution for L=           0  read in
    real space projection operators read in
  non local Contribution for L=           1  read in
    real space projection operators read in
    PAW grid and wavefunctions read in
 
   number of l-projection  operators is LMAX  =           3
   number of lm-projection operators is LMMAX =           5
 
 Optimization of the real space projectors (new method)

 maximal supplied QI-value         = 17.01
 optimisation between [QCUT,QGAM] = [ 10.20, 20.41] = [ 29.16,116.64] Ry 
 Optimized for a Real-space Cutoff    1.19 Angstroem

   l    n(q)    QCUT    max X(q) W(low)/X(q) W(high)/X(q)  e(spline) 
   0      7    10.205    45.123    0.22E-03    0.82E-03    0.11E-06
   0      7    10.205    12.364    0.17E-03    0.61E-03    0.75E-07
   1      7    10.205     8.302    0.37E-03    0.15E-03    0.27E-07
  PAW_PBE Na 08Apr2002                  :
 energy of atom  1       EATOM=   -5.1581
 kinetic energy error for atom=    0.0001 (will be added to EATOM!!)
 
 
 POSCAR: Na
  positions in cartesian coordinates
  No initial velocities read in
 exchange correlation table for  LEXCH =        8
   RHO(1)=    0.500       N(1)  =     2000
   RHO(2)=  100.500       N(2)  =     4000
 


--------------------------------------------------------------------------------------------------------


 ion  position               nearest neighbor table
   1  0.500  0.500  0.237-   4 3.63   2 3.63   2 3.63   2 3.63   3 4.20   3 4.20   3 4.20
   2  0.000  0.000  0.285-   1 3.63   1 3.63   1 3.63   3 3.63   3 3.63   3 3.63   5 3.63   4 4.20
                             4 4.20   4 4.20
   3  0.500  0.500  0.333-   6 3.63   4 3.63   4 3.63   4 3.63   2 3.63   2 3.63   2 3.63   1 4.20
                             1 4.20   1 4.20   5 4.20   5 4.20   5 4.20
   4  0.000  0.000  0.380-   1 3.63   3 3.63   3 3.63   3 3.63   5 3.63   5 3.63   5 3.63   7 3.63
                             6 4.20   6 4.20   2 4.20   2 4.20   2 4.20   6 4.20
   5  0.500  0.500  0.428-   8 3.63   6 3.63   6 3.63   6 3.63   4 3.63   4 3.63   4 3.63   2 3.63
                             3 4.20   7 4.20   7 4.20   3 4.20   7 4.20   3 4.20
   6  0.000  0.000  0.476-   3 3.63   5 3.63   5 3.63   5 3.63   7 3.63   7 3.63   7 3.63   9 3.63
                             8 4.20   8 4.20   4 4.20   4 4.20   4 4.20   8 4.20
   7  0.500  0.500  0.524-  10 3.63   8 3.63   8 3.63   8 3.63   6 3.63   6 3.63   6 3.63   4 3.63
                             5 4.20   9 4.20   9 4.20   5 4.20   9 4.20   5 4.20
   8  0.000  0.000  0.572-   5 3.63   7 3.63   7 3.63   7 3.63   9 3.63   9 3.63   9 3.63  11 3.63
                            10 4.20  10 4.20   6 4.20   6 4.20   6 4.20  10 4.20
   9  0.500  0.500  0.620-  12 3.63  10 3.63  10 3.63  10 3.63   8 3.63   8 3.63   8 3.63   6 3.63
                             7 4.20  11 4.20  11 4.20   7 4.20  11 4.20   7 4.20
  10  0.000  0.000  0.667-   7 3.63   9 3.63   9 3.63   9 3.63  11 3.63  11 3.63  11 3.63  12 4.20
                            12 4.20  12 4.20   8 4.20   8 4.20   8 4.20
  11  0.500  0.500  0.715-  12 3.63  12 3.63  12 3.63  10 3.63  10 3.63  10 3.63   8 3.63   9 4.20
                             9 4.20   9 4.20
  12  0.000  0.000  0.763-   9 3.63  11 3.63  11 3.63  11 3.63  10 4.20  10 4.20  10 4.20
 
  Warning from LATTYP: Got some problem with cell dimensions!
  Tried to take original basis but could not verify dimensions!
  LATTYP: Found a base centered monoclinic cell.
 ALAT       =    10.2767166991
 B/A-ratio  =     0.5773502692
 C/A-ratio  =     2.5112684695
 COS(beta)  =    -0.1930071851
  
  Lattice vectors:
  
 A1 = (   5.7310940451,   1.5356420211,   0.0000000000)
 A2 = (   1.5356420211,   5.7310940451,   0.0000000000)
 A3 = (  -3.5221350753,  -3.5221350753,  25.3223432741)


Analysis of symmetry for initial positions (statically):
=====================================================================
 Subroutine PRICEL returns:
 Original cell was already a primitive cell.
 

 Routine SETGRP: Setting up the symmetry group for a 
 base centered monoclinic supercell.


 Subroutine GETGRP returns: Found  4 space group operations
 (whereof  2 operations were pure point group operations)
 out of a pool of  4 trial point group operations.


The static configuration has the point symmetry C_1h.
 The point group associated with its full space group is C_2h.


Analysis of symmetry for dynamics (positions and initial velocities):
=====================================================================
 Subroutine PRICEL returns:
 Original cell was already a primitive cell.
 

 Routine SETGRP: Setting up the symmetry group for a 
 base centered monoclinic supercell.


 Subroutine GETGRP returns: Found  4 space group operations
 (whereof  2 operations were pure point group operations)
 out of a pool of  4 trial point group operations.


The dynamic configuration has the point symmetry C_1h.
 The point group associated with its full space group is C_2h.


 Subroutine INISYM returns: Found  4 space group operations
 (whereof  2 operations are pure point group operations),
 and found     1 'primitive' translations


----------------------------------------------------------------------------------------

                                     Primitive cell                                     

  volume of cell :     772.0084

  direct lattice vectors                    reciprocal lattice vectors
     5.731094045  1.535642021  0.000000000     0.187983352 -0.050369987  0.137613365
     1.535642021  5.731094045  0.000000000    -0.050369987  0.187983352  0.137613365
   -25.322343274-25.322343274 25.322343274     0.000000000  0.000000000  0.039490816

  length of vectors
     5.933265153  5.933265153 43.859585117     0.238353339  0.238353339  0.039490816

  position of ions in fractional coordinates (direct lattice)
     0.500000951  0.500000951  0.236944896
     0.000000100  0.000000100  0.284772875
     0.500000951  0.500000951  0.332601342
     0.000000100  0.000000100  0.380429321
     0.500000951  0.500000951  0.428257788
     0.000000100  0.000000100  0.476085767
     0.500000951  0.500000951  0.523914233
     0.000000100  0.000000100  0.571742212
     0.500000951  0.500000951  0.619570679
     0.000000100  0.000000100  0.667398658
     0.500000951  0.500000951  0.715227125
     0.000000100  0.000000100  0.763055104

  ion indices of the primitive-cell ions
   primitive index   ion index
                 1           1
                 2           2
                 3           3
                 4           4
                 5           5
                 6           6
                 7           7
                 8           8
                 9           9
                10          10
                11          11
                12          12

----------------------------------------------------------------------------------------

 
 -----------------------------------------------------------------------------
|                                                                             |
|           W    W    AA    RRRRR   N    N  II  N    N   GGGG   !!!           |
|           W    W   A  A   R    R  NN   N  II  NN   N  G    G  !!!           |
|           W    W  A    A  R    R  N N  N  II  N N  N  G       !!!           |
|           W WW W  AAAAAA  RRRRR   N  N N  II  N  N N  G  GGG   !            |
|           WW  WW  A    A  R   R   N   NN  II  N   NN  G    G                |
|           W    W  A    A  R    R  N    N  II  N    N   GGGG   !!!           |
|                                                                             |
|     The requested file  could not be found or opened for reading            |
|     k-point information. Automatic k-point generation is used as a          |
|     fallback, which may lead to unwanted results.                           |
|                                                                             |
 -----------------------------------------------------------------------------

 

Automatic generation of k-mesh.
 Grid dimensions derived from KSPACING:
 generate k-points for:    3    3    1

 Generating k-lattice:

  Cartesian coordinates                     Fractional coordinates (reciprocal lattice)
     0.062661117 -0.016789996  0.045871122     0.333333333 -0.000000000  0.000000000
    -0.016789996  0.062661117  0.045871122     0.000000000  0.333333333  0.000000000
     0.000000000  0.000000000  0.039490816     0.000000000  0.000000000  1.000000000

  Length of vectors
     0.079451113  0.079451113  0.039490816

  Shift w.r.t. Gamma in fractional coordinates (k-lattice)
     0.000000000  0.000000000  0.000000000

 
 Subroutine IBZKPT returns following result:
 ===========================================
 
 Found      4 irreducible k-points:
 
 Following reciprocal coordinates:
            Coordinates               Weight
  0.000000  0.000000  0.000000      1.000000
  0.333333  0.000000  0.000000      4.000000
  0.333333  0.333333  0.000000      2.000000
 -0.333333  0.333333  0.000000      2.000000
 
 Following cartesian coordinates:
            Coordinates               Weight
  0.000000  0.000000  0.000000      1.000000
  0.062661 -0.016790  0.045871      4.000000
  0.045871  0.045871  0.091742      2.000000
 -0.079451  0.079451  0.000000      2.000000
 


--------------------------------------------------------------------------------------------------------




 Dimension of arrays:
   k-points           NKPTS =      4   k-points in BZ     NKDIM =      4   number of bands    NBANDS=     16
   number of dos      NEDOS =    301   number of ions     NIONS =     12
   non local maximal  LDIM  =      3   non local SUM 2l+1 LMDIM =      5
   total plane-waves  NPLWV = 194400
   max r-space proj   IRMAX =   1831   max aug-charges    IRDMAX=  12458
   dimension x,y,z NGX =    30 NGY =   30 NGZ =  216
   dimension x,y,z NGXF=    60 NGYF=   60 NGZF=  432
   support grid    NGXF=    60 NGYF=   60 NGZF=  432
   ions per type =              12
   NGX,Y,Z   is equivalent  to a cutoff of   8.41,  8.41,  8.19 a.u.
   NGXF,Y,Z  is equivalent  to a cutoff of  16.81, 16.81, 16.37 a.u.

 SYSTEM =  unknown system                          
 POSCAR =  Na                                      

 Startparameter for this run:
   NWRITE =      1    write-flag & timer
   PREC   = normal    normal or accurate (medium, high low for compatibility)
   ISTART =      0    job   : 0-new  1-cont  2-samecut
   ICHARG =      2    charge: 1-file 2-atom 10-const
   ISPIN  =      1    spin polarized calculation?
   LNONCOLLINEAR =      F non collinear calculations
   LSORBIT =      F    spin-orbit coupling
   INIWAV =      1    electr: 0-lowe 1-rand  2-diag
   LASPH  =      T    aspherical Exc in radial PAW
 Electronic Relaxation 1
   ENCUT  =  400.0 eV  29.40 Ry    5.42 a.u.   9.68  9.68 71.52*2*pi/ulx,y,z
   ENINI  =  400.0     initial cutoff
   ENAUG  =  250.7 eV  augmentation charge cutoff
   NELM   =    150;   NELMIN=  2; NELMDL= -5     # of ELM steps 
   EDIFF  = 0.1E-07   stopping-criterion for ELM
   LREAL  =      T    real-space projection
   NLSPLINE    = F    spline interpolate recip. space projectors
   LCOMPAT=      F    compatible to vasp.4.4
   GGA_COMPAT  = T    GGA compatible to vasp.4.4-vasp.4.6
   LMAXPAW     = -100 max onsite density
   LMAXMIX     =    6 max onsite mixed and CHGCAR
   VOSKOWN=      0    Vosko Wilk Nusair interpolation
   ROPT   =   -0.00050
 Ionic relaxation
   EDIFFG = -.1E-01   stopping-criterion for IOM
   NSW    =      0    number of steps for IOM
   NBLOCK =      1;   KBLOCK =      1    inner block; outer block 
   IBRION =     -1    ionic relax: 0-MD 1-quasi-New 2-CG
   NFREE  =      0    steps in history (QN), initial steepest desc. (CG)
   ISIF   =      3    stress and relaxation
   IWAVPR =     10    prediction:  0-non 1-charg 2-wave 3-comb
   ISYM   =      2    0-nonsym 1-usesym 2-fastsym
   LCORR  =      T    Harris-Foulkes like correction to forces

   POTIM  = 0.5000    time-step for ionic-motion
   TEIN   =    0.0    initial temperature
   TEBEG  =    0.0;   TEEND  =   0.0 temperature during run
   SMASS  =  -3.00    Nose mass-parameter (am)
   estimated Nose-frequenzy (Omega)   =  0.10E-29 period in steps = 0.13E+47 mass=  -0.804E-27a.u.
   SCALEE = 1.0000    scale energy and forces
   NPACO  =    256;   APACO  = 16.0  distance and # of slots for P.C.
   PSTRESS=    0.0 pullay stress

  Mass of Ions in am
   POMASS =  22.99
  Ionic Valenz
   ZVAL   =   1.00
  Atomic Wigner-Seitz radii
   RWIGS  =  -1.00
  virtual crystal weights 
   VCA    =   1.00
   NELECT =      12.0000    total number of electrons
   NUPDOWN=      -1.0000    fix difference up-down

 DOS related values:
   EMIN   =  10.00;   EMAX   =-10.00  energy-range for DOS
   EFERMI =   0.00
   ISMEAR =     0;   SIGMA  =   0.10  broadening in eV -4-tet -1-fermi 0-gaus

 Electronic relaxation 2 (details)
   IALGO  =     68    algorithm
   LDIAG  =      T    sub-space diagonalisation (order eigenvalues)
   LSUBROT=      F    optimize rotation matrix (better conditioning)
   TURBO    =      0    0=normal 1=particle mesh
   IRESTART =      0    0=no restart 2=restart with 2 vectors
   NREBOOT  =      0    no. of reboots
   NMIN     =      0    reboot dimension
   EREF     =   0.00    reference energy to select bands
   IMIX   =      4    mixing-type and parameters
     AMIX     =   0.40;   BMIX     =  1.00
     AMIX_MAG =   1.60;   BMIX_MAG =  1.00
     AMIN     =   0.01
     WC   =   100.;   INIMIX=   1;  MIXPRE=   1;  MAXMIX= -45

 Intra band minimization:
   WEIMIN = 0.0000     energy-eigenvalue tresh-hold
   EBREAK =  0.16E-09  absolut break condition
   DEPER  =   0.30     relativ break condition  

   TIME   =   0.40     timestep for ELM

  volume/ion in A,a.u.               =      64.33       434.15
  Fermi-wavevector in a.u.,A,eV,Ry     =   0.408565  0.772076  2.271158  0.166925
  Thomas-Fermi vector in A             =   1.362964
 
 Write flags
   LWAVE        =      F    write WAVECAR
   LDOWNSAMPLE  =      F    k-point downsampling of WAVECAR
   LCHARG       =      F    write CHGCAR
   LVTOT        =      F    write LOCPOT, total local potential
   LVHAR        =      F    write LOCPOT, Hartree potential only
   LELF         =      F    write electronic localiz. function (ELF)
   LORBIT       =      0    0 simple, 1 ext, 2 COOP (PROOUT), +10 PAW based schemes


 Dipole corrections
   LMONO  =      F    monopole corrections only (constant potential shift)
   LDIPOL =      T    correct potential (dipole corrections)
   IDIPOL =      3    1-x, 2-y, 3-z, 4-all directions 
   EPSILON=  1.0000000 bulk dielectric constant

 Exchange correlation treatment:
   GGA     =    PE    GGA type
   LEXCH   =     8    internal setting for exchange type
   VOSKOWN=      0    Vosko Wilk Nusair interpolation
   LHFCALC =     F    Hartree Fock is set to
   LHFONE  =     F    Hartree Fock one center treatment
   AEXX    =    0.0000 exact exchange contribution

 Linear response parameters
   LEPSILON=     F    determine dielectric tensor
   LRPA    =     F    only Hartree local field effects (RPA)
   LNABLA  =     F    use nabla operator in PAW spheres
   LVEL    =     F    velocity operator in full k-point grid
   LINTERFAST=   F  fast interpolation
   KINTER  =     0    interpolate to denser k-point grid
   CSHIFT  =0.1000    complex shift for real part using Kramers Kronig
   OMEGAMAX=  -1.0    maximum frequency
   DEG_THRESHOLD= 0.2000000E-02 threshold for treating states as degnerate
   RTIME   =   -0.100 relaxation time in fs
  (WPLASMAI=    0.000 imaginary part of plasma frequency in eV, 0.658/RTIME)
   DFIELD  = 0.0000000 0.0000000 0.0000000 field for delta impulse in time
 
 Orbital magnetization related:
   ORBITALMAG=     F  switch on orbital magnetization
   LCHIMAG   =     F  perturbation theory with respect to B field
   DQ        =  0.001000  dq finite difference perturbation B field
   LLRAUG    =     F  two centre corrections for induced B field



--------------------------------------------------------------------------------------------------------


 Static calculation
 charge density and potential will be updated during run
 non-spin polarized calculation
 RMM-DIIS sequential band-by-band and
  variant of blocked Davidson during initial phase
 perform sub-space diagonalisation
    before iterative eigenvector-optimisation
 modified Broyden-mixing scheme, WC =      100.0
 initial mixing is a Kerker type mixing with AMIX =  0.4000 and BMIX =      1.0000
 Hartree-type preconditioning will be used
 using additional bands           10
 real space projection scheme for non local part
 use partial core corrections
 calculate Harris-corrections to forces 
   (improved forces if not selfconsistent)
 use gradient corrections 
 use of overlap-Matrix (Vanderbilt PP)
 Gauss-broadening in eV      SIGMA  =   0.10


--------------------------------------------------------------------------------------------------------


  energy-cutoff  :      400.00
  volume of cell :      772.01
      direct lattice vectors                 reciprocal lattice vectors
     5.731094045  1.535642021  0.000000000     0.187983352 -0.050369987  0.137613365
     1.535642021  5.731094045  0.000000000    -0.050369987  0.187983352  0.137613365
   -25.322343274-25.322343274 25.322343274     0.000000000  0.000000000  0.039490816

  length of vectors
     5.933265153  5.933265153 43.859585117     0.238353339  0.238353339  0.039490816


 
 k-points in units of 2pi/SCALE and weight: read from INCAR                         
   0.00000000  0.00000000  0.00000000       0.111
   0.06266112 -0.01679000  0.04587112       0.444
   0.04587112  0.04587112  0.09174224       0.222
  -0.07945111  0.07945111  0.00000000       0.222
 
 k-points in reciprocal lattice and weights: read from INCAR                         
   0.00000000  0.00000000  0.00000000       0.111
   0.33333333  0.00000000  0.00000000       0.444
   0.33333333  0.33333333  0.00000000       0.222
  -0.33333333  0.33333333  0.00000000       0.222
 
 position of ions in fractional coordinates (direct lattice) 
   0.50000095  0.50000095  0.23694490
   0.00000010  0.00000010  0.28477288
   0.50000095  0.50000095  0.33260134
   0.00000010  0.00000010  0.38042932
   0.50000095  0.50000095  0.42825779
   0.00000010  0.00000010  0.47608577
   0.50000095  0.50000095  0.52391423
   0.00000010  0.00000010  0.57174221
   0.50000095  0.50000095  0.61957068
   0.00000010  0.00000010  0.66739866
   0.50000095  0.50000095  0.71522712
   0.00000010  0.00000010  0.76305510
 
 position of ions in cartesian coordinates  (Angst):
  -2.36662506 -2.36662506  6.00000000
  -7.21111577 -7.21111577  7.21111650
  -4.78887041 -4.78887041  8.42224536
  -9.63336113 -9.63336113  9.63336185
  -7.21111577 -7.21111577 10.84449071
 -12.05560648-12.05560648 12.05560721
  -9.63336113 -9.63336113 13.26673607
 -14.47785184-14.47785184 14.47785256
 -12.05560648-12.05560648 15.68898142
 -16.90009719-16.90009719 16.90009792
 -14.47785184-14.47785184 18.11122678
 -19.32234255-19.32234255 19.32234327
 


--------------------------------------------------------------------------------------------------------


 k-point   1 :   0.0000 0.0000 0.0000  plane waves:   14081
 k-point   2 :   0.3333 0.0000 0.0000  plane waves:   14014
 k-point   3 :   0.3333 0.3333 0.0000  plane waves:   13998
 k-point   4 :  -0.3333 0.3333 0.0000  plane waves:   13986

 maximum and minimum number of plane-waves per node :       901      853

 maximum number of plane-waves:     14081
 maximum index in each direction: 
   IXMAX=    9   IYMAX=    9   IZMAX=   71
   IXMIN=  -10   IYMIN=  -10   IZMIN=  -71


 real space projection operators:
  total allocation   :        809.69 KBytes
  max/ min on nodes  :         71.95         29.30


 parallel 3D FFT for wavefunctions:
    minimum data exchange during FFTs selected (reduces bandwidth)
 parallel 3D FFT for charge:
    minimum data exchange during FFTs selected (reduces bandwidth)


 total amount of memory used by VASP MPI-rank0    33539. kBytes
=======================================================================

   base      :      30000. kBytes
   nonlr-proj:        453. kBytes
   fftplans  :       1203. kBytes
   grid      :       1767. kBytes
   one-center:          1. kBytes
   wavefun   :        115. kBytes
 
     INWAV:  cpu time    0.0000: real time    0.0000
 Broyden mixing: mesh for mixing (old mesh)
   NGX = 19   NGY = 19   NGZ =143
  (NGX  = 60   NGY  = 60   NGZ  =432)
  gives a total of  51623 points

 initial charge density was supplied:
 charge density of overlapping atoms calculated
 number of electron      12.0000000 magnetization 
 keeping initial charge density in first step


--------------------------------------------------------------------------------------------------------


 Maximum index for non-local projection operator          157
 Maximum index for augmentation-charges          559 (set IRDMAX)


--------------------------------------------------------------------------------------------------------


 First call to EWALD:  gamma=   0.193
 Maximum number of real-space cells 5x 5x 1
 Maximum number of reciprocal cells 2x 2x11

    FEWALD:  cpu time    0.0015: real time    0.0015


--------------------------------------- Iteration      1(   1)  ---------------------------------------


    POTLOK:  cpu time    0.0190: real time    0.0214
    SETDIJ:  cpu time    0.0397: real time    0.0407
     EDDAV:  cpu time    0.0832: real time    0.0899
       DOS:  cpu time    0.0020: real time    0.0023
    --------------------------------------------
      LOOP:  cpu time    0.1439: real time    0.1543

 eigenvalue-minimisations  :   128
 total energy-change (2. order) :-0.5791814E+00  (-0.2060503E+03)
 number of electron      12.0000000 magnetization 
 augmentation part       12.0000000 magnetization 

 DIPCOR: dipole corrections for dipol
 direction  3 min pos     1,
 dipolmoment          -0.000000     -0.000000      0.000000 electrons x Angstroem
 Tr[quadrupol]       -30.749817

 energy correction for charged system         0.000000 eV
 dipol+quadrupol energy correction           -0.000000 eV
 added-field ion interaction         -0.000000 eV  (added to PSCEN)


 Free energy of the ion-electron system (eV)
  ---------------------------------------------------
  alpha Z        PSCENC =        -3.41642727
  Ewald energy   TEWEN  =        91.77090035
  -Hartree energ DENC   =      -145.45057632
  -exchange      EXHF   =         0.00000000
  -V(xc)+E(xc)   XCENC  =      -439.32891858
  PAW double counting   =       478.51375300      -28.41183042
  entropy T*S    EENTRO =        -0.03436181
  eigenvalues    EBANDS =       -16.11831372
  atomic energy  EATOM  =        61.89659342
  Solvation  Ediel_sol  =         0.00000000
  ---------------------------------------------------
  free energy    TOTEN  =        -0.57918135 eV

  energy without entropy =       -0.54481955  energy(sigma->0) =       -0.56200045


--------------------------------------------------------------------------------------------------------




--------------------------------------- Iteration      1(   2)  ---------------------------------------


     EDDAV:  cpu time    0.0815: real time    0.0845
       DOS:  cpu time    0.0003: real time    0.0003
    --------------------------------------------
      LOOP:  cpu time    0.0817: real time    0.0848

 eigenvalue-minimisations  :   168
 total energy-change (2. order) :-0.1422590E+02  (-0.1317763E+02)
 number of electron      12.0000000 magnetization 
 augmentation part       12.0000000 magnetization 

 DIPCOR: dipole corrections for dipol
 direction  3 min pos     1,
 dipolmoment          -0.000000     -0.000000      0.000000 electrons x Angstroem
 Tr[quadrupol]       -30.749817

 energy correction for charged system         0.000000 eV
 dipol+quadrupol energy correction           -0.000000 eV
 added-field ion interaction         -0.000000 eV  (added to PSCEN)


 Free energy of the ion-electron system (eV)
  ---------------------------------------------------
  alpha Z        PSCENC =        -3.41642727
  Ewald energy   TEWEN  =        91.77090035
  -Hartree energ DENC   =      -145.45057632
  -exchange      EXHF   =         0.00000000
  -V(xc)+E(xc)   XCENC  =      -439.32891858
  PAW double counting   =       478.51375300      -28.41183042
  entropy T*S    EENTRO =        -0.05219170
  eigenvalues    EBANDS =       -30.32637942
  atomic energy  EATOM  =        61.89659342
  Solvation  Ediel_sol  =         0.00000000
  ---------------------------------------------------
  free energy    TOTEN  =       -14.80507694 eV

  energy without entropy =      -14.75288525  energy(sigma->0) =      -14.77898109


--------------------------------------------------------------------------------------------------------




--------------------------------------- Iteration      1(   3)  ---------------------------------------


     EDDAV:  cpu time    0.0679: real time    0.0694
       DOS:  cpu time    0.0003: real time    0.0003
    --------------------------------------------
      LOOP:  cpu time    0.0682: real time    0.0697

 eigenvalue-minimisations  :   184
 total energy-change (2. order) :-0.7027973E+00  (-0.6922056E+00)
 number of electron      12.0000000 magnetization 
 augmentation part       12.0000000 magnetization 

 DIPCOR: dipole corrections for dipol
 direction  3 min pos     1,
 dipolmoment          -0.000000     -0.000000      0.000000 electrons x Angstroem
 Tr[quadrupol]       -30.749817

 energy correction for charged system         0.000000 eV
 dipol+quadrupol energy correction           -0.000000 eV
 added-field ion interaction         -0.000000 eV  (added to PSCEN)


 Free energy of the ion-electron system (eV)
  ---------------------------------------------------
  alpha Z        PSCENC =        -3.41642727
  Ewald energy   TEWEN  =        91.77090035
  -Hartree energ DENC   =      -145.45057632
  -exchange      EXHF   =         0.00000000
  -V(xc)+E(xc)   XCENC  =      -439.32891858
  PAW double counting   =       478.51375300      -28.41183042
  entropy T*S    EENTRO =        -0.04251663
  eigenvalues    EBANDS =       -31.03885183
  atomic energy  EATOM  =        61.89659342
  Solvation  Ediel_sol  =         0.00000000
  ---------------------------------------------------
  free energy    TOTEN  =       -15.50787429 eV

  energy without entropy =      -15.46535766  energy(sigma->0) =      -15.48661598


--------------------------------------------------------------------------------------------------------




--------------------------------------- Iteration      1(   4)  ---------------------------------------


     EDDAV:  cpu time    0.0743: real time    0.0743
       DOS:  cpu time    0.0003: real time    0.0003
    --------------------------------------------
      LOOP:  cpu time    0.0746: real time    0.0746

 eigenvalue-minimisations  :   200
 total energy-change (2. order) :-0.3218011E-01  (-0.3216758E-01)
 number of electron      12.0000000 magnetization 
 augmentation part       12.0000000 magnetization 

 DIPCOR: dipole corrections for dipol
 direction  3 min pos     1,
 dipolmoment          -0.000000     -0.000000      0.000000 electrons x Angstroem
 Tr[quadrupol]       -30.749817

 energy correction for charged system         0.000000 eV
 dipol+quadrupol energy correction           -0.000000 eV
 added-field ion interaction         -0.000000 eV  (added to PSCEN)


 Free energy of the ion-electron system (eV)
  ---------------------------------------------------
  alpha Z        PSCENC =        -3.41642727
  Ewald energy   TEWEN  =        91.77090035
  -Hartree energ DENC   =      -145.45057632
  -exchange      EXHF   =         0.00000000
  -V(xc)+E(xc)   XCENC  =      -439.32891858
  PAW double counting   =       478.51375300      -28.41183042
  entropy T*S    EENTRO =        -0.04199590
  eigenvalues    EBANDS =       -31.07155268
  atomic energy  EATOM  =        61.89659342
  Solvation  Ediel_sol  =         0.00000000
  ---------------------------------------------------
  free energy    TOTEN  =       -15.54005441 eV

  energy without entropy =      -15.49805851  energy(sigma->0) =      -15.51905646


--------------------------------------------------------------------------------------------------------




--------------------------------------- Iteration      1(   5)  ---------------------------------------


     EDDAV:  cpu time    0.0829: real time    0.0830
       DOS:  cpu time    0.0003: real time    0.0003
    CHARGE:  cpu time    0.0228: real time    0.0238
    MIXING:  cpu time    0.0037: real time    0.0041
    --------------------------------------------
      LOOP:  cpu time    0.1097: real time    0.1112

 eigenvalue-minimisations  :   208
 total energy-change (2. order) :-0.9262312E-03  (-0.9262192E-03)
 number of electron      12.0000000 magnetization 
 augmentation part        0.0877755 magnetization 

 DIPCOR: dipole corrections for dipol
 direction  3 min pos     1,
 dipolmoment          -0.000000     -0.000000      0.000000 electrons x Angstroem
 Tr[quadrupol]       -30.749817

 energy correction for charged system         0.000000 eV
 dipol+quadrupol energy correction           -0.000000 eV
 added-field ion interaction         -0.000000 eV  (added to PSCEN)


 Broyden mixing:
  rms(total) = 0.13624E+00    rms(broyden)= 0.13624E+00
  rms(prec ) = 0.32194E+00
  weight for this iteration     100.00

 Free energy of the ion-electron system (eV)
  ---------------------------------------------------
  alpha Z        PSCENC =        -3.41642727
  Ewald energy   TEWEN  =        91.77090035
  -Hartree energ DENC   =      -145.45057632
  -exchange      EXHF   =         0.00000000
  -V(xc)+E(xc)   XCENC  =      -439.32891858
  PAW double counting   =       478.51375300      -28.41183042
  entropy T*S    EENTRO =        -0.04198784
  eigenvalues    EBANDS =       -31.07248698
  atomic energy  EATOM  =        61.89659342
  Solvation  Ediel_sol  =         0.00000000
  ---------------------------------------------------
  free energy    TOTEN  =       -15.54098064 eV

  energy without entropy =      -15.49899280  energy(sigma->0) =      -15.51998672


--------------------------------------------------------------------------------------------------------




--------------------------------------- Iteration      1(   6)  ---------------------------------------


    POTLOK:  cpu time    0.0155: real time    0.0155
    SETDIJ:  cpu time    0.0395: real time    0.0395
    EDDIAG:  cpu time    0.0232: real time    0.0253
  RMM-DIIS:  cpu time    0.0165: real time    0.0170
    ORTHCH:  cpu time    0.0025: real time    0.0025
       DOS:  cpu time    0.0003: real time    0.0003
    CHARGE:  cpu time    0.0206: real time    0.0206
    MIXING:  cpu time    0.0018: real time    0.0030
    --------------------------------------------
      LOOP:  cpu time    0.1198: real time    0.1237

 eigenvalue-minimisations  :   142
 total energy-change (2. order) : 0.4054934E+00  (-0.4228534E-02)
 number of electron      12.0000000 magnetization 
 augmentation part        0.0855911 magnetization 

 DIPCOR: dipole corrections for dipol
 direction  3 min pos     1,
 dipolmoment          -0.000000     -0.000000      0.000000 electrons x Angstroem
 Tr[quadrupol]       -31.369740

 energy correction for charged system         0.000000 eV
 dipol+quadrupol energy correction           -0.000000 eV
 added-field ion interaction          0.000000 eV  (added to PSCEN)


 Broyden mixing:
  rms(total) = 0.85232E-01    rms(broyden)= 0.85232E-01
  rms(prec ) = 0.20366E+00
  weight for this iteration     100.00

 eigenvalues of (default mixing * dielectric matrix)
  average eigenvalue GAMMA=   2.1330
  2.1330

 Free energy of the ion-electron system (eV)
  ---------------------------------------------------
  alpha Z        PSCENC =        -3.41642727
  Ewald energy   TEWEN  =        91.77090035
  -Hartree energ DENC   =      -146.60517117
  -exchange      EXHF   =         0.00000000
  -V(xc)+E(xc)   XCENC  =      -439.09890270
  PAW double counting   =       476.45719397      -26.36663867
  entropy T*S    EENTRO =        -0.06020119
  eigenvalues    EBANDS =       -29.71283394
  atomic energy  EATOM  =        61.89659342
  Solvation  Ediel_sol  =         0.00000000
  ---------------------------------------------------
  free energy    TOTEN  =       -15.13548720 eV

  energy without entropy =      -15.07528601  energy(sigma->0) =      -15.10538661


--------------------------------------------------------------------------------------------------------




--------------------------------------- Iteration      1(   7)  ---------------------------------------


    POTLOK:  cpu time    0.0158: real time    0.0158
    SETDIJ:  cpu time    0.0395: real time    0.0395
    EDDIAG:  cpu time    0.0210: real time    0.0219
  RMM-DIIS:  cpu time    0.0200: real time    0.0200
    ORTHCH:  cpu time    0.0014: real time    0.0014
       DOS:  cpu time    0.0011: real time    0.0011
    CHARGE:  cpu time    0.0207: real time    0.0207
    MIXING:  cpu time    0.0007: real time    0.0007
    --------------------------------------------
      LOOP:  cpu time    0.1203: real time    0.1211

 eigenvalue-minimisations  :   166
 total energy-change (2. order) : 0.2543873E+00  (-0.1709859E-01)
 number of electron      12.0000000 magnetization 
 augmentation part        0.0825336 magnetization 

 DIPCOR: dipole corrections for dipol
 direction  3 min pos     1,
 dipolmoment          -0.000000     -0.000000      0.000000 electrons x Angstroem
 Tr[quadrupol]       -33.189816

 energy correction for charged system         0.000000 eV
 dipol+quadrupol energy correction           -0.000000 eV
 added-field ion interaction         -0.000000 eV  (added to PSCEN)


 Broyden mixing:
  rms(total) = 0.36718E-01    rms(broyden)= 0.36718E-01
  rms(prec ) = 0.72231E-01
  weight for this iteration     100.00

 eigenvalues of (default mixing * dielectric matrix)
  average eigenvalue GAMMA=   1.9787
  1.9787  1.9787

 Free energy of the ion-electron system (eV)
  ---------------------------------------------------
  alpha Z        PSCENC =        -3.41642727
  Ewald energy   TEWEN  =        91.77090035
  -Hartree energ DENC   =      -148.74238239
  -exchange      EXHF   =         0.00000000
  -V(xc)+E(xc)   XCENC  =      -438.69506067
  PAW double counting   =       473.87656725      -23.80362590
  entropy T*S    EENTRO =        -0.07727431
  eigenvalues    EBANDS =       -27.69039040
  atomic energy  EATOM  =        61.89659342
  Solvation  Ediel_sol  =         0.00000000
  ---------------------------------------------------
  free energy    TOTEN  =       -14.88109993 eV

  energy without entropy =      -14.80382562  energy(sigma->0) =      -14.84246277


--------------------------------------------------------------------------------------------------------




--------------------------------------- Iteration      1(   8)  ---------------------------------------


    POTLOK:  cpu time    0.0157: real time    0.0157
    SETDIJ:  cpu time    0.0394: real time    0.0394
    EDDIAG:  cpu time    0.0218: real time    0.0218
  RMM-DIIS:  cpu time    0.0170: real time    0.0170
    ORTHCH:  cpu time    0.0014: real time    0.0014
       DOS:  cpu time    0.0004: real time    0.0004
    CHARGE:  cpu time    0.0202: real time    0.0202
    MIXING:  cpu time    0.0007: real time    0.0007
    --------------------------------------------
      LOOP:  cpu time    0.1166: real time    0.1167

 eigenvalue-minimisations  :   136
 total energy-change (2. order) : 0.3303598E-01  (-0.2685076E-02)
 number of electron      12.0000000 magnetization 
 augmentation part        0.0826076 magnetization 

 DIPCOR: dipole corrections for dipol
 direction  3 min pos     1,
 dipolmoment          -0.000000     -0.000000      0.000000 electrons x Angstroem
 Tr[quadrupol]       -34.947033

 energy correction for charged system         0.000000 eV
 dipol+quadrupol energy correction           -0.000000 eV
 added-field ion interaction          0.000000 eV  (added to PSCEN)


 Broyden mixing:
  rms(total) = 0.19840E-01    rms(broyden)= 0.19840E-01
  rms(prec ) = 0.58487E-01
  weight for this iteration     100.00

 eigenvalues of (default mixing * dielectric matrix)
  average eigenvalue GAMMA=   1.9885
  1.0925  2.7613  2.1116

 Free energy of the ion-electron system (eV)
  ---------------------------------------------------
  alpha Z        PSCENC =        -3.41642727
  Ewald energy   TEWEN  =        91.77090035
  -Hartree energ DENC   =      -149.36870530
  -exchange      EXHF   =         0.00000000
  -V(xc)+E(xc)   XCENC  =      -438.62583070
  PAW double counting   =       473.57133221      -23.49778785
  entropy T*S    EENTRO =        -0.07765853
  eigenvalues    EBANDS =       -27.10048027
  atomic energy  EATOM  =        61.89659342
  Solvation  Ediel_sol  =         0.00000000
  ---------------------------------------------------
  free energy    TOTEN  =       -14.84806394 eV

  energy without entropy =      -14.77040541  energy(sigma->0) =      -14.80923468


--------------------------------------------------------------------------------------------------------




--------------------------------------- Iteration      1(   9)  ---------------------------------------


    POTLOK:  cpu time    0.0154: real time    0.0154
    SETDIJ:  cpu time    0.0591: real time    0.0607
    EDDIAG:  cpu time    0.0355: real time    0.0884
  RMM-DIIS:  cpu time    0.0194: real time    0.0194
    ORTHCH:  cpu time    0.0015: real time    0.0015
       DOS:  cpu time    0.0004: real time    0.0004
    CHARGE:  cpu time    0.0205: real time    0.0205
    MIXING:  cpu time    0.0008: real time    0.0008
    --------------------------------------------
      LOOP:  cpu time    0.1526: real time    0.2070

 eigenvalue-minimisations  :   150
 total energy-change (2. order) : 0.2940793E-01  (-0.2620770E-02)
 number of electron      12.0000000 magnetization 
 augmentation part        0.0821151 magnetization 

 DIPCOR: dipole corrections for dipol
 direction  3 min pos     1,
 dipolmoment           0.000000      0.000000     -0.000000 electrons x Angstroem
 Tr[quadrupol]       -38.043264

 energy correction for charged system         0.000000 eV
 dipol+quadrupol energy correction           -0.000000 eV
 added-field ion interaction          0.000000 eV  (added to PSCEN)


 Broyden mixing:
  rms(total) = 0.18877E-01    rms(broyden)= 0.18877E-01
  rms(prec ) = 0.42619E-01
  weight for this iteration     100.00

 eigenvalues of (default mixing * dielectric matrix)
  average eigenvalue GAMMA=   2.2784
  3.1612  3.1612  0.9708  1.8204

 Free energy of the ion-electron system (eV)
  ---------------------------------------------------
  alpha Z        PSCENC =        -3.41642727
  Ewald energy   TEWEN  =        91.77090035
  -Hartree energ DENC   =      -150.55489766
  -exchange      EXHF   =         0.00000000
  -V(xc)+E(xc)   XCENC  =      -438.50942338
  PAW double counting   =       473.18996128      -23.11802159
  entropy T*S    EENTRO =        -0.07696165
  eigenvalues    EBANDS =       -26.00037952
  atomic energy  EATOM  =        61.89659342
  Solvation  Ediel_sol  =         0.00000000
  ---------------------------------------------------
  free energy    TOTEN  =       -14.81865602 eV

  energy without entropy =      -14.74169437  energy(sigma->0) =      -14.78017519


--------------------------------------------------------------------------------------------------------




--------------------------------------- Iteration      1(  10)  ---------------------------------------


    POTLOK:  cpu time    0.0155: real time    0.0155
    SETDIJ:  cpu time    0.0395: real time    0.0395
    EDDIAG:  cpu time    0.0212: real time    0.0218
  RMM-DIIS:  cpu time    0.0180: real time    0.0180
    ORTHCH:  cpu time    0.0014: real time    0.0014
       DOS:  cpu time    0.0004: real time    0.0004
    CHARGE:  cpu time    0.0201: real time    0.0201
    MIXING:  cpu time    0.0006: real time    0.0006
    --------------------------------------------
      LOOP:  cpu time    0.1167: real time    0.1172

 eigenvalue-minimisations  :   160
 total energy-change (2. order) : 0.2021290E-01  (-0.1557268E-02)
 number of electron      12.0000000 magnetization 
 augmentation part        0.0818671 magnetization 

 DIPCOR: dipole corrections for dipol
 direction  3 min pos     1,
 dipolmoment           0.000000      0.000000     -0.000000 electrons x Angstroem
 Tr[quadrupol]       -45.926241

 energy correction for charged system         0.000000 eV
 dipol+quadrupol energy correction           -0.000000 eV
 added-field ion interaction          0.000000 eV  (added to PSCEN)


 Broyden mixing:
  rms(total) = 0.11863E-01    rms(broyden)= 0.11863E-01
  rms(prec ) = 0.25373E-01
  weight for this iteration     100.00

 eigenvalues of (default mixing * dielectric matrix)
  average eigenvalue GAMMA=   2.2571
  3.7080  3.7080  1.0106  1.4294  1.4294

 Free energy of the ion-electron system (eV)
  ---------------------------------------------------
  alpha Z        PSCENC =        -3.41642727
  Ewald energy   TEWEN  =        91.77090035
  -Hartree energ DENC   =      -152.06101212
  -exchange      EXHF   =         0.00000000
  -V(xc)+E(xc)   XCENC  =      -438.58748791
  PAW double counting   =       473.82489827      -23.74763017
  entropy T*S    EENTRO =        -0.07654245
  eigenvalues    EBANDS =       -24.40173521
  atomic energy  EATOM  =        61.89659342
  Solvation  Ediel_sol  =         0.00000000
  ---------------------------------------------------
  free energy    TOTEN  =       -14.79844311 eV

  energy without entropy =      -14.72190066  energy(sigma->0) =      -14.76017189


--------------------------------------------------------------------------------------------------------




--------------------------------------- Iteration      1(  11)  ---------------------------------------


    POTLOK:  cpu time    0.0155: real time    0.0155
    SETDIJ:  cpu time    0.0396: real time    0.0396
    EDDIAG:  cpu time    0.0209: real time    0.0217
  RMM-DIIS:  cpu time    0.0171: real time    0.0171
    ORTHCH:  cpu time    0.0014: real time    0.0014
       DOS:  cpu time    0.0004: real time    0.0004
    CHARGE:  cpu time    0.0198: real time    0.0198
    MIXING:  cpu time    0.0009: real time    0.0009
    --------------------------------------------
      LOOP:  cpu time    0.1155: real time    0.1162

 eigenvalue-minimisations  :   147
 total energy-change (2. order) : 0.9972939E-02  (-0.7453613E-03)
 number of electron      12.0000000 magnetization 
 augmentation part        0.0818556 magnetization 

 DIPCOR: dipole corrections for dipol
 direction  3 min pos     1,
 dipolmoment           0.000000      0.000000     -0.000000 electrons x Angstroem
 Tr[quadrupol]       -49.011094

 energy correction for charged system         0.000000 eV
 dipol+quadrupol energy correction           -0.000000 eV
 added-field ion interaction         -0.000000 eV  (added to PSCEN)


 Broyden mixing:
  rms(total) = 0.10425E-01    rms(broyden)= 0.10425E-01
  rms(prec ) = 0.21446E-01
  weight for this iteration     100.00

 eigenvalues of (default mixing * dielectric matrix)
  average eigenvalue GAMMA=   2.8524
  5.2294  5.2294  2.9092  1.7299  1.0709  0.9458

 Free energy of the ion-electron system (eV)
  ---------------------------------------------------
  alpha Z        PSCENC =        -3.41642727
  Ewald energy   TEWEN  =        91.77090035
  -Hartree energ DENC   =      -152.66093720
  -exchange      EXHF   =         0.00000000
  -V(xc)+E(xc)   XCENC  =      -438.55783461
  PAW double counting   =       473.76633543      -23.68914030
  entropy T*S    EENTRO =        -0.07599136
  eigenvalues    EBANDS =       -23.82196862
  atomic energy  EATOM  =        61.89659342
  Solvation  Ediel_sol  =         0.00000000
  ---------------------------------------------------
  free energy    TOTEN  =       -14.78847017 eV

  energy without entropy =      -14.71247881  energy(sigma->0) =      -14.75047449


--------------------------------------------------------------------------------------------------------




--------------------------------------- Iteration      1(  12)  ---------------------------------------


    POTLOK:  cpu time    0.0150: real time    0.0150
    SETDIJ:  cpu time    0.0394: real time    0.0394
    EDDIAG:  cpu time    0.0214: real time    0.0217
  RMM-DIIS:  cpu time    0.0203: real time    0.0203
    ORTHCH:  cpu time    0.0014: real time    0.0014
       DOS:  cpu time    0.0004: real time    0.0004
    CHARGE:  cpu time    0.0213: real time    0.0213
    MIXING:  cpu time    0.0007: real time    0.0007
    --------------------------------------------
      LOOP:  cpu time    0.1199: real time    0.1202

 eigenvalue-minimisations  :   185
 total energy-change (2. order) :-0.1407855E-01  (-0.2904226E-02)
 number of electron      12.0000000 magnetization 
 augmentation part        0.0811028 magnetization 

 DIPCOR: dipole corrections for dipol
 direction  3 min pos     1,
 dipolmoment           0.000000      0.000000     -0.000000 electrons x Angstroem
 Tr[quadrupol]       -58.272387

 energy correction for charged system         0.000000 eV
 dipol+quadrupol energy correction           -0.000000 eV
 added-field ion interaction          0.000000 eV  (added to PSCEN)


 Broyden mixing:
  rms(total) = 0.10812E-01    rms(broyden)= 0.10812E-01
  rms(prec ) = 0.23316E-01
  weight for this iteration     100.00

 eigenvalues of (default mixing * dielectric matrix)
  average eigenvalue GAMMA=   2.7120
  5.9038  5.9038  2.8384  1.7249  1.0985  0.9284  0.5860

 Free energy of the ion-electron system (eV)
  ---------------------------------------------------
  alpha Z        PSCENC =        -3.41642727
  Ewald energy   TEWEN  =        91.77090035
  -Hartree energ DENC   =      -153.99617931
  -exchange      EXHF   =         0.00000000
  -V(xc)+E(xc)   XCENC  =      -438.49966614
  PAW double counting   =       473.10462399      -23.03190524
  entropy T*S    EENTRO =        -0.07431960
  eigenvalues    EBANDS =       -22.55616892
  atomic energy  EATOM  =        61.89659342
  Solvation  Ediel_sol  =         0.00000000
  ---------------------------------------------------
  free energy    TOTEN  =       -14.80254872 eV

  energy without entropy =      -14.72822913  energy(sigma->0) =      -14.76538893


--------------------------------------------------------------------------------------------------------




--------------------------------------- Iteration      1(  13)  ---------------------------------------


    POTLOK:  cpu time    0.0150: real time    0.0150
    SETDIJ:  cpu time    0.0617: real time    0.0617
    EDDIAG:  cpu time    0.0355: real time    0.0373
  RMM-DIIS:  cpu time    0.0172: real time    0.0233
    ORTHCH:  cpu time    0.0020: real time    0.0020
       DOS:  cpu time    0.0046: real time    0.0046
    CHARGE:  cpu time    0.0246: real time    0.0246
    MIXING:  cpu time    0.0008: real time    0.0008
    --------------------------------------------
      LOOP:  cpu time    0.1614: real time    0.1693

 eigenvalue-minimisations  :   142
 total energy-change (2. order) : 0.9604111E-04  (-0.1832155E-03)
 number of electron      12.0000000 magnetization 
 augmentation part        0.0814017 magnetization 

 DIPCOR: dipole corrections for dipol
 direction  3 min pos     1,
 dipolmoment           0.000000      0.000000     -0.000000 electrons x Angstroem
 Tr[quadrupol]       -57.759948

 energy correction for charged system         0.000000 eV
 dipol+quadrupol energy correction           -0.000000 eV
 added-field ion interaction          0.000000 eV  (added to PSCEN)


 Broyden mixing:
  rms(total) = 0.44535E-02    rms(broyden)= 0.44535E-02
  rms(prec ) = 0.66435E-02
  weight for this iteration     100.00

 eigenvalues of (default mixing * dielectric matrix)
  average eigenvalue GAMMA=   3.2455
  9.7224  5.5872  3.2809  2.5164  1.8248  0.9526  1.0398  1.0398

 Free energy of the ion-electron system (eV)
  ---------------------------------------------------
  alpha Z        PSCENC =        -3.41642727
  Ewald energy   TEWEN  =        91.77090035
  -Hartree energ DENC   =      -153.66885145
  -exchange      EXHF   =         0.00000000
  -V(xc)+E(xc)   XCENC  =      -438.53713375
  PAW double counting   =       473.33772085      -23.26301630
  entropy T*S    EENTRO =        -0.07486889
  eigenvalues    EBANDS =       -22.84736963
  atomic energy  EATOM  =        61.89659342
  Solvation  Ediel_sol  =         0.00000000
  ---------------------------------------------------
  free energy    TOTEN  =       -14.80245268 eV

  energy without entropy =      -14.72758379  energy(sigma->0) =      -14.76501824


--------------------------------------------------------------------------------------------------------




--------------------------------------- Iteration      1(  14)  ---------------------------------------


    POTLOK:  cpu time    0.0154: real time    0.0284
    SETDIJ:  cpu time    0.0395: real time    0.0395
    EDDIAG:  cpu time    0.0219: real time    0.0225
  RMM-DIIS:  cpu time    0.0173: real time    0.0173
    ORTHCH:  cpu time    0.0014: real time    0.0014
       DOS:  cpu time    0.0003: real time    0.0003
    CHARGE:  cpu time    0.0205: real time    0.0205
    MIXING:  cpu time    0.0008: real time    0.0008
    --------------------------------------------
      LOOP:  cpu time    0.1171: real time    0.1307

 eigenvalue-minimisations  :   150
 total energy-change (2. order) :-0.4481031E-02  (-0.1895316E-03)
 number of electron      12.0000000 magnetization 
 augmentation part        0.0814100 magnetization 

 DIPCOR: dipole corrections for dipol
 direction  3 min pos     1,
 dipolmoment           0.000000      0.000000     -0.000000 electrons x Angstroem
 Tr[quadrupol]       -58.892229

 energy correction for charged system         0.000000 eV
 dipol+quadrupol energy correction           -0.000000 eV
 added-field ion interaction         -0.000000 eV  (added to PSCEN)


 Broyden mixing:
  rms(total) = 0.22596E-02    rms(broyden)= 0.22596E-02
  rms(prec ) = 0.58817E-02
  weight for this iteration     100.00

 eigenvalues of (default mixing * dielectric matrix)
  average eigenvalue GAMMA=   3.6022
 14.2153  6.5764  3.0236  2.6193  1.5672  1.5672  0.9808  0.9808  0.8894

 Free energy of the ion-electron system (eV)
  ---------------------------------------------------
  alpha Z        PSCENC =        -3.41642727
  Ewald energy   TEWEN  =        91.77090035
  -Hartree energ DENC   =      -153.79951067
  -exchange      EXHF   =         0.00000000
  -V(xc)+E(xc)   XCENC  =      -438.53272959
  PAW double counting   =       473.44249358      -23.36570831
  entropy T*S    EENTRO =        -0.07483087
  eigenvalues    EBANDS =       -22.72771434
  atomic energy  EATOM  =        61.89659342
  Solvation  Ediel_sol  =         0.00000000
  ---------------------------------------------------
  free energy    TOTEN  =       -14.80693371 eV

  energy without entropy =      -14.73210284  energy(sigma->0) =      -14.76951828


--------------------------------------------------------------------------------------------------------




--------------------------------------- Iteration      1(  15)  ---------------------------------------


    POTLOK:  cpu time    0.0162: real time    0.0162
    SETDIJ:  cpu time    0.0395: real time    0.0394
    EDDIAG:  cpu time    0.0216: real time    0.0216
  RMM-DIIS:  cpu time    0.0179: real time    0.0179
    ORTHCH:  cpu time    0.0014: real time    0.0014
       DOS:  cpu time    0.0003: real time    0.0003
    CHARGE:  cpu time    0.0199: real time    0.0199
    MIXING:  cpu time    0.0011: real time    0.0011
    --------------------------------------------
      LOOP:  cpu time    0.1179: real time    0.1179

 eigenvalue-minimisations  :   154
 total energy-change (2. order) :-0.9572046E-03  (-0.5870929E-04)
 number of electron      12.0000000 magnetization 
 augmentation part        0.0815080 magnetization 

 DIPCOR: dipole corrections for dipol
 direction  3 min pos     1,
 dipolmoment           0.000000      0.000000     -0.000000 electrons x Angstroem
 Tr[quadrupol]       -58.275404

 energy correction for charged system         0.000000 eV
 dipol+quadrupol energy correction           -0.000000 eV
 added-field ion interaction          0.000000 eV  (added to PSCEN)


 Broyden mixing:
  rms(total) = 0.95056E-03    rms(broyden)= 0.95056E-03
  rms(prec ) = 0.22561E-02
  weight for this iteration     100.00

 eigenvalues of (default mixing * dielectric matrix)
  average eigenvalue GAMMA=   3.6171
 15.5858  6.3667  3.3512  2.8990  2.2375  1.7731  1.1658  0.9848  0.9848  0.8221

 Free energy of the ion-electron system (eV)
  ---------------------------------------------------
  alpha Z        PSCENC =        -3.41642727
  Ewald energy   TEWEN  =        91.77090035
  -Hartree energ DENC   =      -153.58902370
  -exchange      EXHF   =         0.00000000
  -V(xc)+E(xc)   XCENC  =      -438.53930358
  PAW double counting   =       473.42807482      -23.35154999
  entropy T*S    EENTRO =        -0.07494264
  eigenvalues    EBANDS =       -22.93221232
  atomic energy  EATOM  =        61.89659342
  Solvation  Ediel_sol  =         0.00000000
  ---------------------------------------------------
  free energy    TOTEN  =       -14.80789092 eV

  energy without entropy =      -14.73294828  energy(sigma->0) =      -14.77041960


--------------------------------------------------------------------------------------------------------




--------------------------------------- Iteration      1(  16)  ---------------------------------------


    POTLOK:  cpu time    0.0159: real time    0.0159
    SETDIJ:  cpu time    0.0397: real time    0.0397
    EDDIAG:  cpu time    0.0217: real time    0.0217
  RMM-DIIS:  cpu time    0.0172: real time    0.0172
    ORTHCH:  cpu time    0.0014: real time    0.0014
       DOS:  cpu time    0.0003: real time    0.0003
    CHARGE:  cpu time    0.0200: real time    0.0200
    MIXING:  cpu time    0.0009: real time    0.0009
    --------------------------------------------
      LOOP:  cpu time    0.1171: real time    0.1171

 eigenvalue-minimisations  :   150
 total energy-change (2. order) :-0.1276370E-03  (-0.9395468E-05)
 number of electron      12.0000000 magnetization 
 augmentation part        0.0814623 magnetization 

 DIPCOR: dipole corrections for dipol
 direction  3 min pos     1,
 dipolmoment           0.000000      0.000000     -0.000000 electrons x Angstroem
 Tr[quadrupol]       -58.528987

 energy correction for charged system         0.000000 eV
 dipol+quadrupol energy correction           -0.000000 eV
 added-field ion interaction         -0.000000 eV  (added to PSCEN)


 Broyden mixing:
  rms(total) = 0.39514E-03    rms(broyden)= 0.39514E-03
  rms(prec ) = 0.93090E-03
  weight for this iteration     100.00

 eigenvalues of (default mixing * dielectric matrix)
  average eigenvalue GAMMA=   3.4362
 15.7610  6.3522  3.5760  2.9417  2.3374  1.7644  1.3291  0.9848  0.9848  0.8831
  0.8831

 Free energy of the ion-electron system (eV)
  ---------------------------------------------------
  alpha Z        PSCENC =        -3.41642727
  Ewald energy   TEWEN  =        91.77090035
  -Hartree energ DENC   =      -153.65034808
  -exchange      EXHF   =         0.00000000
  -V(xc)+E(xc)   XCENC  =      -438.53869340
  PAW double counting   =       473.41791251      -23.34148017
  entropy T*S    EENTRO =        -0.07490170
  eigenvalues    EBANDS =       -22.87157421
  atomic energy  EATOM  =        61.89659342
  Solvation  Ediel_sol  =         0.00000000
  ---------------------------------------------------
  free energy    TOTEN  =       -14.80801856 eV

  energy without entropy =      -14.73311686  energy(sigma->0) =      -14.77056771


--------------------------------------------------------------------------------------------------------




--------------------------------------- Iteration      1(  17)  ---------------------------------------


    POTLOK:  cpu time    0.0150: real time    0.0150
    SETDIJ:  cpu time    0.0394: real time    0.0394
    EDDIAG:  cpu time    0.0212: real time    0.0217
  RMM-DIIS:  cpu time    0.0180: real time    0.0180
    ORTHCH:  cpu time    0.0014: real time    0.0014
       DOS:  cpu time    0.0003: real time    0.0003
    CHARGE:  cpu time    0.0201: real time    0.0201
    MIXING:  cpu time    0.0009: real time    0.0009
    --------------------------------------------
      LOOP:  cpu time    0.1164: real time    0.1169

 eigenvalue-minimisations  :   173
 total energy-change (2. order) :-0.1193867E-04  (-0.3558235E-05)
 number of electron      12.0000000 magnetization 
 augmentation part        0.0814279 magnetization 

 DIPCOR: dipole corrections for dipol
 direction  3 min pos     1,
 dipolmoment           0.000000      0.000000     -0.000000 electrons x Angstroem
 Tr[quadrupol]       -58.539557

 energy correction for charged system         0.000000 eV
 dipol+quadrupol energy correction           -0.000000 eV
 added-field ion interaction          0.000000 eV  (added to PSCEN)


 Broyden mixing:
  rms(total) = 0.19291E-03    rms(broyden)= 0.19291E-03
  rms(prec ) = 0.40344E-03
  weight for this iteration     100.00

 eigenvalues of (default mixing * dielectric matrix)
  average eigenvalue GAMMA=   3.1812
 15.8187  6.3449  3.5635  2.9614  2.3336  1.7692  1.3376  0.9840  0.9840  0.8853
  0.8853  0.3070

 Free energy of the ion-electron system (eV)
  ---------------------------------------------------
  alpha Z        PSCENC =        -3.41642727
  Ewald energy   TEWEN  =        91.77090035
  -Hartree energ DENC   =      -153.65587247
  -exchange      EXHF   =         0.00000000
  -V(xc)+E(xc)   XCENC  =      -438.53875593
  PAW double counting   =       473.40762141      -23.33123199
  entropy T*S    EENTRO =        -0.07489167
  eigenvalues    EBANDS =       -22.86596633
  atomic energy  EATOM  =        61.89659342
  Solvation  Ediel_sol  =         0.00000000
  ---------------------------------------------------
  free energy    TOTEN  =       -14.80803049 eV

  energy without entropy =      -14.73313882  energy(sigma->0) =      -14.77058466


--------------------------------------------------------------------------------------------------------




--------------------------------------- Iteration      1(  18)  ---------------------------------------


    POTLOK:  cpu time    0.0175: real time    0.0175
    SETDIJ:  cpu time    0.0394: real time    0.0394
    EDDIAG:  cpu time    0.0213: real time    0.0213
  RMM-DIIS:  cpu time    0.0181: real time    0.0181
    ORTHCH:  cpu time    0.0014: real time    0.0014
       DOS:  cpu time    0.0004: real time    0.0004
    CHARGE:  cpu time    0.0205: real time    0.0205
    MIXING:  cpu time    0.0008: real time    0.0008
    --------------------------------------------
      LOOP:  cpu time    0.1194: real time    0.1194

 eigenvalue-minimisations  :   177
 total energy-change (2. order) :-0.2549614E-06  (-0.5268163E-06)
 number of electron      12.0000000 magnetization 
 augmentation part        0.0814176 magnetization 

 DIPCOR: dipole corrections for dipol
 direction  3 min pos     1,
 dipolmoment           0.000000      0.000000     -0.000000 electrons x Angstroem
 Tr[quadrupol]       -58.541881

 energy correction for charged system         0.000000 eV
 dipol+quadrupol energy correction           -0.000000 eV
 added-field ion interaction          0.000000 eV  (added to PSCEN)


 Broyden mixing:
  rms(total) = 0.14612E-03    rms(broyden)= 0.14612E-03
  rms(prec ) = 0.28650E-03
  weight for this iteration     100.00

 eigenvalues of (default mixing * dielectric matrix)
  average eigenvalue GAMMA=   3.2169
 15.9067  6.3567  3.4996  2.9115  2.5506  1.9102  1.9102  1.8688  1.0901  1.0106
  1.0106  0.8969  0.8969

 Free energy of the ion-electron system (eV)
  ---------------------------------------------------
  alpha Z        PSCENC =        -3.41642727
  Ewald energy   TEWEN  =        91.77090035
  -Hartree energ DENC   =      -153.65696595
  -exchange      EXHF   =         0.00000000
  -V(xc)+E(xc)   XCENC  =      -438.53882198
  PAW double counting   =       473.39787216      -23.32148941
  entropy T*S    EENTRO =        -0.07488914
  eigenvalues    EBANDS =       -22.86480293
  atomic energy  EATOM  =        61.89659342
  Solvation  Ediel_sol  =         0.00000000
  ---------------------------------------------------
  free energy    TOTEN  =       -14.80803075 eV

  energy without entropy =      -14.73314161  energy(sigma->0) =      -14.77058618


--------------------------------------------------------------------------------------------------------




--------------------------------------- Iteration      1(  19)  ---------------------------------------


    POTLOK:  cpu time    0.0153: real time    0.0153
    SETDIJ:  cpu time    0.0396: real time    0.0396
    EDDIAG:  cpu time    0.0211: real time    0.0216
  RMM-DIIS:  cpu time    0.0172: real time    0.0172
    ORTHCH:  cpu time    0.0014: real time    0.0014
       DOS:  cpu time    0.0004: real time    0.0004
    CHARGE:  cpu time    0.0200: real time    0.0200
    MIXING:  cpu time    0.0011: real time    0.0011
    --------------------------------------------
      LOOP:  cpu time    0.1162: real time    0.1167

 eigenvalue-minimisations  :   156
 total energy-change (2. order) : 0.5881662E-07  (-0.9965411E-07)
 number of electron      12.0000000 magnetization 
 augmentation part        0.0814127 magnetization 

 DIPCOR: dipole corrections for dipol
 direction  3 min pos     1,
 dipolmoment           0.000000      0.000000     -0.000000 electrons x Angstroem
 Tr[quadrupol]       -58.550568

 energy correction for charged system         0.000000 eV
 dipol+quadrupol energy correction           -0.000000 eV
 added-field ion interaction          0.000000 eV  (added to PSCEN)


 Broyden mixing:
  rms(total) = 0.47857E-04    rms(broyden)= 0.47857E-04
  rms(prec ) = 0.13547E-03
  weight for this iteration     100.00

 eigenvalues of (default mixing * dielectric matrix)
  average eigenvalue GAMMA=   3.0867
 16.0192  6.2366  4.0380  3.0250  2.4347  2.4347  1.6983  1.5630  1.0401  1.0401
  0.9755  0.8635  0.9229  0.9229

 Free energy of the ion-electron system (eV)
  ---------------------------------------------------
  alpha Z        PSCENC =        -3.41642727
  Ewald energy   TEWEN  =        91.77090035
  -Hartree energ DENC   =      -153.65996940
  -exchange      EXHF   =         0.00000000
  -V(xc)+E(xc)   XCENC  =      -438.53876276
  PAW double counting   =       473.36855707      -23.29217645
  entropy T*S    EENTRO =        -0.07488293
  eigenvalues    EBANDS =       -22.86186271
  atomic energy  EATOM  =        61.89659342
  Solvation  Ediel_sol  =         0.00000000
  ---------------------------------------------------
  free energy    TOTEN  =       -14.80803069 eV

  energy without entropy =      -14.73314776  energy(sigma->0) =      -14.77058923


--------------------------------------------------------------------------------------------------------




--------------------------------------- Iteration      1(  20)  ---------------------------------------


    POTLOK:  cpu time    0.0152: real time    0.0152
    SETDIJ:  cpu time    0.0394: real time    0.0394
    EDDIAG:  cpu time    0.0213: real time    0.0215
  RMM-DIIS:  cpu time    0.0183: real time    0.0183
    ORTHCH:  cpu time    0.0016: real time    0.0016
       DOS:  cpu time    0.0004: real time    0.0004
    CHARGE:  cpu time    0.0200: real time    0.0200
    MIXING:  cpu time    0.0009: real time    0.0009
    --------------------------------------------
      LOOP:  cpu time    0.1171: real time    0.1172

 eigenvalue-minimisations  :   174
 total energy-change (2. order) : 0.5813945E-09  (-0.4067412E-07)
 number of electron      12.0000000 magnetization 
 augmentation part        0.0814082 magnetization 

 DIPCOR: dipole corrections for dipol
 direction  3 min pos     1,
 dipolmoment           0.000000      0.000000     -0.000000 electrons x Angstroem
 Tr[quadrupol]       -58.559363

 energy correction for charged system         0.000000 eV
 dipol+quadrupol energy correction           -0.000000 eV
 added-field ion interaction         -0.000000 eV  (added to PSCEN)


 Broyden mixing:
  rms(total) = 0.14867E-04    rms(broyden)= 0.14867E-04
  rms(prec ) = 0.21567E-04
  weight for this iteration     100.00

 eigenvalues of (default mixing * dielectric matrix)
  average eigenvalue GAMMA=   2.9987
 16.0231  6.2280  4.0828  2.9694  2.4955  2.1815  1.8613  1.6148  1.3416  1.3416
  0.8611  1.0596  0.9938  0.9938  0.9321

 Free energy of the ion-electron system (eV)
  ---------------------------------------------------
  alpha Z        PSCENC =        -3.41642727
  Ewald energy   TEWEN  =        91.77090035
  -Hartree energ DENC   =      -153.66267408
  -exchange      EXHF   =         0.00000000
  -V(xc)+E(xc)   XCENC  =      -438.53875776
  PAW double counting   =       473.36444151      -23.28805805
  entropy T*S    EENTRO =        -0.07488077
  eigenvalues    EBANDS =       -22.85916803
  atomic energy  EATOM  =        61.89659342
  Solvation  Ediel_sol  =         0.00000000
  ---------------------------------------------------
  free energy    TOTEN  =       -14.80803069 eV

  energy without entropy =      -14.73314992  energy(sigma->0) =      -14.77059030


--------------------------------------------------------------------------------------------------------




--------------------------------------- Iteration      1(  21)  ---------------------------------------


    POTLOK:  cpu time    0.0154: real time    0.0154
    SETDIJ:  cpu time    0.0394: real time    0.0394
    EDDIAG:  cpu time    0.0205: real time    0.0214
  RMM-DIIS:  cpu time    0.0209: real time    0.0209
    ORTHCH:  cpu time    0.0014: real time    0.0014
       DOS:  cpu time    0.0004: real time    0.0004
    CHARGE:  cpu time    0.0202: real time    0.0203
    MIXING:  cpu time    0.0011: real time    0.0011
    --------------------------------------------
      LOOP:  cpu time    0.1192: real time    0.1201

 eigenvalue-minimisations  :   170
 total energy-change (2. order) :-0.3688200E-07  (-0.1271893E-07)
 number of electron      12.0000000 magnetization 
 augmentation part        0.0814067 magnetization 

 DIPCOR: dipole corrections for dipol
 direction  3 min pos     1,
 dipolmoment           0.000000      0.000000     -0.000000 electrons x Angstroem
 Tr[quadrupol]       -58.559053

 energy correction for charged system         0.000000 eV
 dipol+quadrupol energy correction           -0.000000 eV
 added-field ion interaction          0.000000 eV  (added to PSCEN)


 Broyden mixing:
  rms(total) = 0.49701E-05    rms(broyden)= 0.49701E-05
  rms(prec ) = 0.96523E-05
  weight for this iteration     100.00

 eigenvalues of (default mixing * dielectric matrix)
  average eigenvalue GAMMA=   2.9342
 16.0186  6.2279  4.2085  2.9614  2.9614  2.2921  2.2921  1.6132  1.3766  1.1839
  1.1839  0.9658  0.9658  0.8701  0.9131  0.9131

 Free energy of the ion-electron system (eV)
  ---------------------------------------------------
  alpha Z        PSCENC =        -3.41642727
  Ewald energy   TEWEN  =        91.77090035
  -Hartree energ DENC   =      -153.66255858
  -exchange      EXHF   =         0.00000000
  -V(xc)+E(xc)   XCENC  =      -438.53875989
  PAW double counting   =       473.36632554      -23.28994323
  entropy T*S    EENTRO =        -0.07488094
  eigenvalues    EBANDS =       -22.85928012
  atomic energy  EATOM  =        61.89659342
  Solvation  Ediel_sol  =         0.00000000
  ---------------------------------------------------
  free energy    TOTEN  =       -14.80803073 eV

  energy without entropy =      -14.73314979  energy(sigma->0) =      -14.77059026


--------------------------------------------------------------------------------------------------------




--------------------------------------- Iteration      1(  22)  ---------------------------------------


    POTLOK:  cpu time    0.0157: real time    0.0157
    SETDIJ:  cpu time    0.0394: real time    0.0394
    EDDIAG:  cpu time    0.0213: real time    0.0218
  RMM-DIIS:  cpu time    0.0164: real time    0.0164
    ORTHCH:  cpu time    0.0014: real time    0.0014
       DOS:  cpu time    0.0003: real time    0.0003
    --------------------------------------------
      LOOP:  cpu time    0.0945: real time    0.0951

 eigenvalue-minimisations  :   118
 total energy-change (2. order) :-0.9836413E-08  (-0.1013389E-08)
 number of electron      12.0000000 magnetization 
 augmentation part        0.0814067 magnetization 

 DIPCOR: dipole corrections for dipol
 direction  3 min pos     1,
 dipolmoment           0.000000      0.000000     -0.000000 electrons x Angstroem
 Tr[quadrupol]       -58.558135

 energy correction for charged system         0.000000 eV
 dipol+quadrupol energy correction           -0.000000 eV
 added-field ion interaction         -0.000000 eV  (added to PSCEN)


 Free energy of the ion-electron system (eV)
  ---------------------------------------------------
  alpha Z        PSCENC =        -3.41642727
  Ewald energy   TEWEN  =        91.77090035
  -Hartree energ DENC   =      -153.66237325
  -exchange      EXHF   =         0.00000000
  -V(xc)+E(xc)   XCENC  =      -438.53876876
  PAW double counting   =       473.36573294      -23.28935078
  entropy T*S    EENTRO =        -0.07488102
  eigenvalues    EBANDS =       -22.85945636
  atomic energy  EATOM  =        61.89659342
  Solvation  Ediel_sol  =         0.00000000
  ---------------------------------------------------
  free energy    TOTEN  =       -14.80803074 eV

  energy without entropy =      -14.73314971  energy(sigma->0) =      -14.77059023


--------------------------------------------------------------------------------------------------------




 average (electrostatic) potential at core
  the test charge radii are     1.1212
  (the norm of the test charge is              1.0000)
       1 -45.7508       2 -45.3138       3 -45.1772       4 -45.0840       5 -45.0939
       6 -45.1581       7 -45.1581       8 -45.0939       9 -45.0840      10 -45.1772
      11 -45.3138      12 -45.7508
 
 
 
 E-fermi :  -0.8547     XC(G=0):  -4.2478     alpha+bet : -2.8557

 Fermi energy:        -0.8547171162

 k-point     1 :       0.0000    0.0000    0.0000
  band No.  band energies     occupation 
      1      -3.8078      2.00000
      2      -3.4031      2.00000
      3      -2.7645      2.00000
      4      -1.9022      2.00000
      5      -0.9670      1.88776
      6      -0.0049      0.00000
      7       0.8167      0.00000
      8       1.5187      0.00000
      9       1.5188      0.00000
     10       1.5311      0.00000
     11       1.5311      0.00000
     12       1.8319      0.00000
     13       1.8751      0.00000
     14       1.8751      0.00000
     15       1.9077      0.00000
     16       1.9077      0.00000

 k-point     2 :       0.3333    0.0000    0.0000
  band No.  band energies     occupation 
      1      -3.1623      2.00000
      2      -2.7617      2.00000
      3      -2.1305      2.00000
      4      -1.3054      2.00000
      5      -1.2351      2.00000
      6      -0.8721      1.19413
      7      -0.3523      0.00000
      8      -0.2371      0.00000
      9       0.3625      0.00000
     10       0.5171      0.00000
     11       0.6317      0.00000
     12       0.7313      0.00000
     13       0.8697      0.00000
     14       1.2467      0.00000
     15       1.3258      0.00000
     16       1.3976      0.00000

 k-point     3 :       0.3333    0.3333    0.0000
  band No.  band energies     occupation 
      1      -3.1623      2.00000
      2      -2.7617      2.00000
      3      -2.1305      2.00000
      4      -1.3055      2.00000
      5      -1.2352      2.00000
      6      -0.8721      1.19414
      7      -0.3507      0.00000
      8      -0.2369      0.00000
      9       0.3625      0.00000
     10       0.5140      0.00000
     11       0.6238      0.00000
     12       0.7313      0.00000
     13       0.8695      0.00000
     14       1.2516      0.00000
     15       1.3258      0.00000
     16       1.4196      0.00000

 k-point     4 :      -0.3333    0.3333    0.0000
  band No.  band energies     occupation 
      1      -1.8969      2.00000
      2      -1.8903      2.00000
      3      -1.8903      2.00000
      4      -1.5106      2.00000
      5      -1.4964      2.00000
      6      -1.4964      2.00000
      7      -0.8810      1.28939
      8      -0.8630      1.09269
      9      -0.8629      1.09164
     10      -0.0206      0.00000
     11      -0.0202      0.00000
     12       0.0194      0.00000
     13       0.7499      0.00000
     14       0.8978      0.00000
     15       0.9013      0.00000
     16       1.8754      0.00000


--------------------------------------------------------------------------------------------------------


 soft charge-density along one line, spin component           1
         0         1         2         3         4         5         6         7         8         9
 total charge-density along one line
 
 pseudopotential strength for first ion, spin component:           1
  1.421   6.445   0.000   0.002   0.000
  6.445  28.704   0.000  -0.001   0.000
  0.000   0.000   4.813  -0.000  -0.000
  0.002  -0.001  -0.000   4.813  -0.000
  0.000   0.000  -0.000  -0.000   4.813
 total augmentation occupancy for first ion, spin component:           1
  0.880   0.003   0.000   0.041   0.000
  0.003   0.000  -0.000   0.000  -0.000
  0.000  -0.000   0.008  -0.000  -0.000
  0.041   0.000  -0.000   0.005  -0.000
  0.000  -0.000  -0.000  -0.000   0.008


------------------------ aborting loop because EDIFF is reached ----------------------------------------


    CHARGE:  cpu time    0.0208: real time    0.0208
    FORLOC:  cpu time    0.0010: real time    0.0012
    FORNL :  cpu time    0.0136: real time    0.0154
    STRESS:  cpu time    0.0277: real time    0.0292
    FORCOR:  cpu time    0.0151: real time    0.0161
    FORHAR:  cpu time    0.0038: real time    0.0045
    MIXING:  cpu time    0.0007: real time    0.0007
    OFIELD:  cpu time    0.0005: real time    0.0009

  FORCE on cell =-STRESS in cart. coord.  units (eV):
  Direction    XX          YY          ZZ          XY          YZ          ZX
  --------------------------------------------------------------------------------------
  Alpha Z    -3.41643    -3.41643    -3.41643
  Ewald     140.23911   140.23911  -188.70745     0.00002    -0.00002    -0.00002
  Hartree   153.48404   153.48404  -153.30710    -0.00000    -0.00000    -0.00000
  E(xc)     -22.09491   -22.09491   -22.07499    -0.00001     0.00007     0.00007
  Local    -315.87796  -315.87796   320.09001     0.00003     0.00012     0.00012
  n-local    28.36390    28.24916    27.77637     0.00075     0.01662     0.00304
  augment     0.99395     0.99395     0.99963     0.00001    -0.00000    -0.00000
  Kinetic    23.02808    13.29383    17.11209    -0.00036     0.01305    -0.01581
  Fock        0.00000     0.00000     0.00000     0.00000     0.00000     0.00000
  -------------------------------------------------------------------------------------
  Total      -0.20471    -0.20471    -1.52786     0.00043     0.00863     0.00863
  in kB      -0.42484    -0.42484    -3.17081     0.00089     0.01792     0.01792
  external pressure =       -1.34 kB  Pullay stress =        0.00 kB


 VOLUME and BASIS-vectors are now :
 -----------------------------------------------------------------------------
  energy-cutoff  :      400.00
  volume of cell :      772.01
      direct lattice vectors                 reciprocal lattice vectors
     5.731094045  1.535642021  0.000000000     0.187983352 -0.050369987  0.137613365
     1.535642021  5.731094045  0.000000000    -0.050369987  0.187983352  0.137613365
   -25.322343274-25.322343274 25.322343274     0.000000000  0.000000000  0.039490816

  length of vectors
     5.933265153  5.933265153 43.859585117     0.238353339  0.238353339  0.039490816


 FORCES acting on ions
    electron-ion (+dipol)            ewald-force                    non-local-force                 convergence-correction
 -----------------------------------------------------------------------------------------------
   -.351E-04 -.351E-04 0.135E+02   -.249E-05 -.249E-05 -.125E+02   -.396E-02 -.396E-02 -.902E+00   0.229E-08 0.229E-08 0.532E-04
   0.164E-03 0.164E-03 0.115E+02   0.618E-06 0.618E-06 -.112E+02   0.288E-02 0.288E-02 -.274E+00   0.150E-07 0.150E-07 0.657E-04
   0.182E-03 0.182E-03 0.924E+01   -.330E-07 -.330E-07 -.904E+01   0.145E-02 0.145E-02 -.235E+00   -.201E-07 -.201E-07 0.597E-04
   -.744E-04 -.744E-04 0.636E+01   -.418E-07 -.418E-07 -.630E+01   -.313E-02 -.313E-02 -.810E-01   0.192E-07 0.192E-07 0.386E-04
   -.435E-04 -.435E-04 0.374E+01   0.209E-07 0.209E-07 -.379E+01   0.878E-03 0.878E-03 0.181E-01   0.144E-07 0.144E-07 0.161E-04
   0.103E-03 0.103E-03 0.120E+01   0.331E-08 0.331E-08 -.127E+01   0.177E-02 0.177E-02 0.395E-01   -.601E-07 -.601E-07 0.335E-05
   -.103E-03 -.103E-03 -.120E+01   -.331E-08 -.331E-08 0.127E+01   -.177E-02 -.177E-02 -.395E-01   0.601E-07 0.601E-07 -.335E-05
   0.435E-04 0.435E-04 -.374E+01   -.209E-07 -.209E-07 0.379E+01   -.878E-03 -.878E-03 -.181E-01   -.144E-07 -.144E-07 -.161E-04
   0.744E-04 0.744E-04 -.636E+01   0.418E-07 0.418E-07 0.630E+01   0.313E-02 0.313E-02 0.810E-01   -.192E-07 -.192E-07 -.386E-04
   -.182E-03 -.182E-03 -.924E+01   0.330E-07 0.330E-07 0.904E+01   -.145E-02 -.145E-02 0.235E+00   0.201E-07 0.201E-07 -.597E-04
   -.164E-03 -.164E-03 -.115E+02   -.618E-06 -.618E-06 0.112E+02   -.288E-02 -.288E-02 0.274E+00   -.150E-07 -.150E-07 -.657E-04
   0.351E-04 0.351E-04 -.135E+02   0.249E-05 0.249E-05 0.125E+02   0.396E-02 0.396E-02 0.902E+00   -.229E-08 -.229E-08 -.532E-04
 -----------------------------------------------------------------------------------------------
   0.267E-08 0.267E-08 0.610E-09   0.154E-15 -.646E-16 -.355E-14   0.520E-17 -.408E-16 0.000E+00   -.112E-14 -.115E-14 0.898E-12
 
 
 POSITION                                       TOTAL-FORCE (eV/Angst)
 -----------------------------------------------------------------------------------
     -2.36663     -2.36663      6.00000        -0.003996     -0.003996      0.091437
     -7.21112     -7.21112      7.21112         0.003042      0.003042      0.076221
     -4.78887     -4.78887      8.42225         0.001630      0.001630     -0.040274
     -9.63336     -9.63336      9.63336        -0.003200     -0.003200     -0.014220
     -7.21112     -7.21112     10.84449         0.000834      0.000834     -0.029298
    -12.05561    -12.05561     12.05561         0.001873      0.001873     -0.023101
     -9.63336     -9.63336     13.26674        -0.001873     -0.001873      0.023101
    -14.47785    -14.47785     14.47785        -0.000834     -0.000834      0.029298
    -12.05561    -12.05561     15.68898         0.003200      0.003200      0.014220
    -16.90010    -16.90010     16.90010        -0.001630     -0.001630      0.040274
    -14.47785    -14.47785     18.11123        -0.003042     -0.003042     -0.076221
    -19.32234    -19.32234     19.32234         0.003996      0.003996     -0.091437
 -----------------------------------------------------------------------------------
    total drift:                                0.000000      0.000000      0.000000


--------------------------------------------------------------------------------------------------------



  FREE ENERGIE OF THE ION-ELECTRON SYSTEM (eV)
  ---------------------------------------------------
  free  energy   TOTEN  =       -14.80803074 eV

  energy  without entropy=      -14.73314971  energy(sigma->0) =      -14.77059023
 


--------------------------------------------------------------------------------------------------------


    POTLOK:  cpu time    0.0540: real time    0.0540


--------------------------------------------------------------------------------------------------------


     LOOP+:  cpu time    2.7226: real time    2.8410
    4ORBIT:  cpu time    0.0000: real time    0.0000

 total amount of memory used by VASP MPI-rank0    33539. kBytes
=======================================================================

   base      :      30000. kBytes
   nonlr-proj:        453. kBytes
   fftplans  :       1203. kBytes
   grid      :       1767. kBytes
   one-center:          1. kBytes
   wavefun   :        115. kBytes
 
  
  
 General timing and accounting informations for this job:
 ========================================================
  
                  Total CPU time used (sec):        3.223
                            User time (sec):        2.910
                          System time (sec):        0.313
                         Elapsed time (sec):        3.574
  
                   Maximum memory used (kb):       78444.
                   Average memory used (kb):          N/A
  
                          Minor page faults:        47268
                          Major page faults:            0
                 Voluntary context switches:          743
