<?xml version="1.0" encoding="ISO-8859-1"?>
<modeling>
 <generator>
  <i name="program" type="string">vasp </i>
  <i name="version" type="string">6.2.1  </i>
  <i name="subversion" type="string">16May21 (build Dec 23 2021 00:35:04) complex                          parallel </i>
  <i name="platform" type="string">LinuxIFC </i>
  <i name="date" type="string">2023 03 08 </i>
  <i name="time" type="string">11:52:27 </i>
 </generator>
 <incar>
  <i type="string" name="PREC">Normal</i>
  <i type="string" name="ALGO">Fast</i>
  <i type="int" name="ISPIN">     0</i>
  <i name="AMIN">      0.01000000</i>
  <i type="int" name="NELM">   150</i>
  <i type="int" name="IBRION">    -1</i>
  <i name="EDIFF">      0.00000001</i>
  <i name="EDIFFG">     -0.01000000</i>
  <i type="int" name="NSW">     0</i>
  <i type="int" name="ISIF">     3</i>
  <i name="ENCUT">    400.00000000</i>
  <i type="string" name="LREAL">AUTO</i>
  <i type="int" name="ISMEAR">     0</i>
  <i name="SIGMA">      0.10000000</i>
  <i name="KSPACING">      0.50000000</i>
  <i type="logical" name="KGAMMA"> T  </i>
  <i type="int" name="NWRITE">     1</i>
  <i type="int" name="LMAXMIX">     6</i>
  <i type="logical" name="LWAVE"> F  </i>
  <i type="logical" name="LCHARG"> F  </i>
  <i type="logical" name="LASPH"> T  </i>
  <i type="string" name="GGA">PE</i>
  <i type="logical" name="LDIPOL"> T  </i>
  <i type="int" name="IDIPOL">     3</i>
  <v name="DIPOL">      0.25000000      0.25000000      0.50000000</v>
 </incar>
 <primitive_cell>
  <structure name="primitive_cell" >
   <crystal>
    <varray name="basis" >
     <v>       5.73109405       1.53564202       0.00000000 </v>
     <v>       1.53564202       5.73109405       0.00000000 </v>
     <v>     -25.32234327     -25.32234327      25.32234327 </v>
    </varray>
    <i name="volume">    772.00842101 </i>
    <varray name="rec_basis" >
     <v>       0.18798335      -0.05036999       0.13761336 </v>
     <v>      -0.05036999       0.18798335       0.13761336 </v>
     <v>       0.00000000       0.00000000       0.03949082 </v>
    </varray>
   </crystal>
   <varray name="positions" >
    <v>       0.50000095       0.50000095       0.23694490 </v>
    <v>       0.00000010       0.00000010       0.28477288 </v>
    <v>       0.50000095       0.50000095       0.33260134 </v>
    <v>       0.00000010       0.00000010       0.38042932 </v>
    <v>       0.50000095       0.50000095       0.42825779 </v>
    <v>       0.00000010       0.00000010       0.47608577 </v>
    <v>       0.50000095       0.50000095       0.52391423 </v>
    <v>       0.00000010       0.00000010       0.57174221 </v>
    <v>       0.50000095       0.50000095       0.61957068 </v>
    <v>       0.00000010       0.00000010       0.66739866 </v>
    <v>       0.50000095       0.50000095       0.71522712 </v>
    <v>       0.00000010       0.00000010       0.76305510 </v>
   </varray>
  </structure>
  <varray name="primitive_index" >
   <v type="int" >        1 </v>
   <v type="int" >        2 </v>
   <v type="int" >        3 </v>
   <v type="int" >        4 </v>
   <v type="int" >        5 </v>
   <v type="int" >        6 </v>
   <v type="int" >        7 </v>
   <v type="int" >        8 </v>
   <v type="int" >        9 </v>
   <v type="int" >       10 </v>
   <v type="int" >       11 </v>
   <v type="int" >       12 </v>
  </varray>
 </primitive_cell>
 <kpoints>
  <generation param="Gamma">
   <v type="int" name="divisions">       3        3        1 </v>
   <v name="usershift">      0.00000000       0.00000000       0.00000000 </v>
   <v name="genvec1">      0.33333333      -0.00000000       0.00000000 </v>
   <v name="genvec2">      0.00000000       0.33333333       0.00000000 </v>
   <v name="genvec3">      0.00000000       0.00000000       1.00000000 </v>
   <v name="shift">      0.00000000       0.00000000       0.00000000 </v>
  </generation>
  <varray name="kpointlist" >
   <v>       0.00000000       0.00000000       0.00000000 </v>
   <v>       0.33333333       0.00000000       0.00000000 </v>
   <v>       0.33333333       0.33333333       0.00000000 </v>
   <v>      -0.33333333       0.33333333       0.00000000 </v>
  </varray>
  <varray name="weights" >
   <v>       0.11111111 </v>
   <v>       0.44444444 </v>
   <v>       0.22222222 </v>
   <v>       0.22222222 </v>
  </varray>
 </kpoints>
 <parameters>
  <separator name="general" >
   <i type="string" name="SYSTEM">unknown system</i>
   <i type="logical" name="LCOMPAT"> F  </i>
  </separator>
  <separator name="electronic" >
   <i type="string" name="PREC">normal</i>
   <i name="ENMAX">    400.00000000</i>
   <i name="ENAUG">    250.69500000</i>
   <i name="EDIFF">      0.00000001</i>
   <i type="int" name="IALGO">    68</i>
   <i type="int" name="IWAVPR">    10</i>
   <i type="int" name="NBANDS">    16</i>
   <i type="int" name="NBANDSLOW">    -1</i>
   <i type="int" name="NBANDSHIGH">    -1</i>
   <i name="NELECT">     12.00000000</i>
   <i type="int" name="TURBO">     0</i>
   <i type="int" name="IRESTART">     0</i>
   <i type="int" name="NREBOOT">     0</i>
   <i type="int" name="NMIN">     0</i>
   <i name="EREF">      0.00000000</i>
   <separator name="electronic smearing" >
    <i type="int" name="ISMEAR">     0</i>
    <i name="SIGMA">      0.10000000</i>
    <i name="KSPACING">      0.50000000</i>
    <i type="logical" name="KGAMMA"> T  </i>
    <i type="logical" name="KBLOWUP"> T  </i>
   </separator>
   <separator name="electronic projectors" >
    <i type="logical" name="LREAL"> T  </i>
    <v name="ROPT">     -0.00050000</v>
    <i type="int" name="LMAXPAW">  -100</i>
    <i type="int" name="LMAXMIX">     6</i>
    <i type="logical" name="NLSPLINE"> F  </i>
   </separator>
   <separator name="electronic startup" >
    <i type="int" name="ISTART">     0</i>
    <i type="int" name="ICHARG">     2</i>
    <i type="int" name="INIWAV">     1</i>
   </separator>
   <separator name="electronic spin" >
    <i type="int" name="ISPIN">     1</i>
    <i type="logical" name="LNONCOLLINEAR"> F  </i>
    <v name="MAGMOM">      1.00000000      1.00000000      1.00000000      1.00000000      1.00000000      1.00000000      1.00000000      1.00000000      1.00000000      1.00000000      1.00000000      1.00000000</v>
    <i name="NUPDOWN">     -1.00000000</i>
    <i type="logical" name="LSORBIT"> F  </i>
    <v name="SAXIS">      0.00000000      0.00000000      1.00000000</v>
    <i type="logical" name="LSPIRAL"> F  </i>
    <v name="QSPIRAL">      0.00000000      0.00000000      0.00000000</v>
    <i type="logical" name="LZEROZ"> F  </i>
   </separator>
   <separator name="electronic exchange-correlation" >
    <i type="logical" name="LASPH"> T  </i>
    <i type="logical" name="LMETAGGA"> F  </i>
   </separator>
   <separator name="electronic convergence" >
    <i type="int" name="NELM">   150</i>
    <i type="int" name="NELMDL">    -5</i>
    <i type="int" name="NELMIN">     2</i>
    <i name="ENINI">    400.00000000</i>
    <separator name="electronic convergence detail" >
     <i type="logical" name="LDIAG"> T  </i>
     <i type="logical" name="LSUBROT"> F  </i>
     <i name="WEIMIN">      0.00000000</i>
     <i name="EBREAK">      0.00000000</i>
     <i name="DEPER">      0.30000000</i>
     <i type="int" name="NRMM">     4</i>
     <i name="TIME">      0.40000000</i>
    </separator>
   </separator>
   <separator name="electronic mixer" >
    <i name="AMIX">      0.40000000</i>
    <i name="BMIX">      1.00000000</i>
    <i name="AMIN">      0.01000000</i>
    <i name="AMIX_MAG">      1.60000000</i>
    <i name="BMIX_MAG">      1.00000000</i>
    <separator name="electronic mixer details" >
     <i type="int" name="IMIX">     4</i>
     <i type="logical" name="MIXFIRST"> F  </i>
     <i type="int" name="MAXMIX">   -45</i>
     <i name="WC">    100.00000000</i>
     <i type="int" name="INIMIX">     1</i>
     <i type="int" name="MIXPRE">     1</i>
     <i type="int" name="MREMOVE">     5</i>
    </separator>
   </separator>
   <separator name="electronic dipolcorrection" >
    <i type="logical" name="LDIPOL"> T  </i>
    <i type="logical" name="LMONO"> F  </i>
    <i type="int" name="IDIPOL">     3</i>
    <i name="EPSILON">      1.00000000</i>
    <v name="DIPOL">      0.25000000      0.25000000      0.50000000</v>
    <i name="EFIELD">      0.00000000</i>
   </separator>
  </separator>
  <separator name="grids" >
   <i type="int" name="NGX">    30</i>
   <i type="int" name="NGY">    30</i>
   <i type="int" name="NGZ">   216</i>
   <i type="int" name="NGXF">    60</i>
   <i type="int" name="NGYF">    60</i>
   <i type="int" name="NGZF">   432</i>
   <i type="logical" name="ADDGRID"> F  </i>
  </separator>
  <separator name="ionic" >
   <i type="int" name="NSW">     0</i>
   <i type="int" name="IBRION">    -1</i>
   <i type="int" name="MDALGO">     0</i>
   <i type="int" name="ISIF">     3</i>
   <i name="PSTRESS">      0.00000000</i>
   <i name="EDIFFG">     -0.01000000</i>
   <i type="int" name="NFREE">     0</i>
   <i name="POTIM">      0.50000000</i>
   <i name="SMASS">     -3.00000000</i>
   <i name="SCALEE">      1.00000000</i>
  </separator>
  <separator name="ionic md" >
   <i name="TEBEG">      0.00010000</i>
   <i name="TEEND">      0.00010000</i>
   <i type="int" name="NBLOCK">     1</i>
   <i type="int" name="KBLOCK">     1</i>
   <i type="int" name="NPACO">   256</i>
   <i name="APACO">     16.00000000</i>
  </separator>
  <separator name="symmetry" >
   <i type="int" name="ISYM">     2</i>
   <i name="SYMPREC">      0.00001000</i>
  </separator>
  <separator name="dos" >
   <i type="int" name="LORBIT">     0</i>
   <v name="RWIGS">     -1.00000000</v>
   <i type="int" name="NEDOS">   301</i>
   <i name="EMIN">     10.00000000</i>
   <i name="EMAX">    -10.00000000</i>
   <i name="EFERMI">      0.00000000</i>
  </separator>
  <separator name="writing" >
   <i type="int" name="NWRITE">     1</i>
   <i type="logical" name="LWAVE"> F  </i>
   <i type="logical" name="LDOWNSAMPLE"> F  </i>
   <i type="logical" name="LCHARG"> F  </i>
   <i type="logical" name="LPARD"> F  </i>
   <i type="logical" name="LVTOT"> F  </i>
   <i type="logical" name="LVHAR"> F  </i>
   <i type="logical" name="LELF"> F  </i>
   <i type="logical" name="LOPTICS"> F  </i>
   <v name="STM">      0.00000000      0.00000000      0.00000000      0.00000000      0.00000000      0.00000000      0.00000000</v>
  </separator>
  <separator name="performance" >
   <i type="int" name="NPAR">     8</i>
   <i type="int" name="NSIM">     4</i>
   <i type="int" name="NBLK">    -1</i>
   <i type="logical" name="LPLANE"> T  </i>
   <i type="logical" name="LSCALAPACK"> T  </i>
   <i type="logical" name="LSCAAWARE"> F  </i>
   <i type="logical" name="LSCALU"> F  </i>
   <i type="logical" name="LASYNC"> F  </i>
   <i type="logical" name="LORBITALREAL"> F  </i>
  </separator>
  <separator name="miscellaneous" >
   <i type="int" name="IDIOT">     3</i>
   <i type="int" name="PHON_NSTRUCT">    -1</i>
   <i type="logical" name="LMUSIC"> F  </i>
   <v name="POMASS">     22.99000000</v>
   <v name="DARWINR">      0.00000000</v>
   <v name="DARWINV">      1.00000000</v>
   <i type="logical" name="LCORR"> T  </i>
  </separator>
  <i type="logical" name="GGA_COMPAT"> T  </i>
  <i type="logical" name="LBERRY"> F  </i>
  <i type="int" name="ICORELEVEL">     0</i>
  <i type="logical" name="LDAU"> F  </i>
  <i type="int" name="I_CONSTRAINED_M">     0</i>
  <separator name="electronic exchange-correlation" >
   <i type="string" name="GGA">PE</i>
   <i type="int" name="VOSKOWN">     0</i>
   <i type="logical" name="LHFCALC"> F  </i>
   <i type="string" name="PRECFOCK"></i>
   <i type="logical" name="LSYMGRAD"> F  </i>
   <i type="logical" name="LHFONE"> F  </i>
   <i type="logical" name="LRHFCALC"> F  </i>
   <i type="logical" name="LTHOMAS"> F  </i>
   <i type="logical" name="LMODELHF"> F  </i>
   <i type="logical" name="LFOCKACE"> F  </i>
   <i name="ENCUT4O">     -1.00000000</i>
   <i type="int" name="EXXOEP">     0</i>
   <i type="int" name="FOURORBIT">     0</i>
   <i name="AEXX">      0.00000000</i>
   <i name="HFALPHA">      0.00000000</i>
   <i name="MCALPHA">      0.00000000</i>
   <i name="ALDAX">      1.00000000</i>
   <i name="AGGAX">      1.00000000</i>
   <i name="ALDAC">      1.00000000</i>
   <i name="AGGAC">      1.00000000</i>
   <i type="int" name="NKREDX">     1</i>
   <i type="int" name="NKREDY">     1</i>
   <i type="int" name="NKREDZ">     1</i>
   <i type="logical" name="SHIFTRED"> F  </i>
   <i type="logical" name="ODDONLY"> F  </i>
   <i type="logical" name="EVENONLY"> F  </i>
   <i type="int" name="LMAXFOCK">     0</i>
   <i type="int" name="NMAXFOCKAE">     0</i>
   <i type="logical" name="LFOCKAEDFT"> F  </i>
   <i name="HFSCREEN">      0.00000000</i>
   <i name="HFSCREENC">      0.00000000</i>
   <i type="int" name="NBANDSGWLOW">     0</i>
  </separator>
  <separator name="vdW DFT" >
   <i type="logical" name="LUSE_VDW"> F  </i>
   <i name="Zab_VDW">     -0.84910000</i>
   <i name="PARAM1">      0.12340000</i>
   <i name="PARAM2">      1.00000000</i>
   <i name="PARAM3">      0.00000000</i>
  </separator>
  <separator name="model GW" >
   <i type="int" name="MODEL_GW">     0</i>
   <i name="MODEL_EPS0">     38.60042105</i>
   <i name="MODEL_ALPHA">      1.00000000</i>
  </separator>
  <separator name="linear response parameters" >
   <i type="logical" name="LEPSILON"> F  </i>
   <i type="logical" name="LRPA"> F  </i>
   <i type="logical" name="LNABLA"> F  </i>
   <i type="logical" name="LVEL"> F  </i>
   <i type="int" name="KINTER">     0</i>
   <i name="CSHIFT">      0.10000000</i>
   <i name="OMEGAMAX">     -1.00000000</i>
   <i name="DEG_THRESHOLD">      0.00200000</i>
   <i name="RTIME">     -0.10000000</i>
   <i name="WPLASMAI">      0.00000000</i>
   <v name="DFIELD">      0.00000000      0.00000000      0.00000000</v>
   <v name="WPLASMA">      0.00000000      0.00000000      0.00000000      0.00000000      0.00000000      0.00000000      0.00000000      0.00000000      0.00000000</v>
  </separator>
  <separator name="orbital magnetization" >
   <i type="logical" name="NUCIND"> F  </i>
   <v name="MAGPOS">      0.00000000      0.00000000      0.00000000</v>
   <i type="logical" name="LNICSALL"> T  </i>
   <i type="logical" name="ORBITALMAG"> F  </i>
   <i type="logical" name="LMAGBLOCH"> F  </i>
   <i type="logical" name="LCHIMAG"> F  </i>
   <i type="logical" name="LGAUGE"> T  </i>
   <i type="int" name="MAGATOM">     0</i>
   <v name="MAGDIPOL">      0.00000000      0.00000000      0.00000000</v>
   <v name="AVECCONST">      0.00000000      0.00000000      0.00000000</v>
  </separator>
  <separator name="response functions" >
   <i type="logical" name="LFINITE_TEMPERATURE"> F  </i>
   <i type="logical" name="LADDER"> F  </i>
   <i type="logical" name="LRPAFORCE"> F  </i>
   <i type="logical" name="LFXC"> F  </i>
   <i type="logical" name="LHARTREE"> T  </i>
   <i type="int" name="IBSE">     0</i>
   <v type="int" name="KPOINT">    -1     0     0     0</v>
   <i type="logical" name="LTCTC"> F  </i>
   <i type="logical" name="LTCTE"> F  </i>
   <i type="logical" name="LTETE"> F  </i>
   <i type="logical" name="LTRIPLET"> F  </i>
   <i type="logical" name="LFXCEPS"> F  </i>
   <i type="logical" name="LFXHEG"> F  </i>
   <i type="int" name="NATURALO">     2</i>
   <i type="logical" name="LHOLEGF"> F  </i>
   <i type="logical" name="L2ORDER"> F  </i>
   <i type="logical" name="LDMP1"> F  </i>
   <i type="logical" name="LMP2LT"> F  </i>
   <i type="logical" name="LSMP2LT"> F  </i>
   <i type="logical" name="LGWLF"> F  </i>
   <i name="ENCUTGW">     -2.00000000</i>
   <i name="ENCUTGWSOFT">     -2.00000000</i>
   <i name="ENCUTLF">     -1.00000000</i>
   <i type="logical" name="LESF_SPLINES"> F  </i>
   <i type="int" name="LMAXMP2">    -1</i>
   <i name="SCISSOR">      0.00000000</i>
   <i type="int" name="NOMEGA">     0</i>
   <i type="int" name="NOMEGAR">     0</i>
   <i type="int" name="NBANDSGW">    -1</i>
   <i type="int" name="NBANDSO">    -1</i>
   <i type="int" name="NBANDSV">    -1</i>
   <i type="int" name="NELM">   150</i>
   <i type="int" name="NELMHF">     1</i>
   <i type="int" name="DIM">     3</i>
   <i type="int" name="IESPILON">     4</i>
   <i type="int" name="ANTIRES">     0</i>
   <i name="OMEGAMAX">    -30.00000000</i>
   <i name="OMEGAMIN">    -30.00000000</i>
   <i name="OMEGATL">   -200.00000000</i>
   <i type="int" name="OMEGAGRID">     0</i>
   <i name="CSHIFT">     -0.10000000</i>
   <i type="logical" name="LSELFENERGY"> F  </i>
   <i type="logical" name="LSPECTRAL"> F  </i>
   <i type="logical" name="LSPECTRALGW"> F  </i>
   <i type="logical" name="LSINGLES"> F  </i>
   <i type="logical" name="LFERMIGW"> F  </i>
   <i type="logical" name="ODDONLYGW"> F  </i>
   <i type="logical" name="EVENONLYGW"> F  </i>
   <i type="int" name="NKREDLFX">     1</i>
   <i type="int" name="NKREDLFY">     1</i>
   <i type="int" name="NKREDLFZ">     1</i>
   <i type="int" name="MAXMEM">  2800</i>
   <i type="int" name="TELESCOPE">     0</i>
   <i type="int" name="NTAUPAR">    -1</i>
   <i type="int" name="NOMEGAPAR">    -1</i>
   <i name="DAMP_NEWTON">      0.80000001</i>
   <i name="LAMBDA">      1.00000000</i>
  </separator>
  <separator name="External order field" >
   <i name="OFIELD_KAPPA">      0.00000000</i>
   <v name="OFIELD_K">      0.00000000      0.00000000      0.00000000</v>
   <i name="OFIELD_Q6_NEAR">      0.00000000</i>
   <i name="OFIELD_Q6_FAR">      0.00000000</i>
   <i name="OFIELD_A">      0.00000000</i>
  </separator>
 </parameters>
 <atominfo>
  <atoms>      12 </atoms>
  <types>       1 </types>
  <array name="atoms" >
   <dimension dim="1">ion</dimension>
   <field type="string">element</field>
   <field type="int">atomtype</field>
   <set>
    <rc><c>Na</c><c>   1</c></rc>
    <rc><c>Na</c><c>   1</c></rc>
    <rc><c>Na</c><c>   1</c></rc>
    <rc><c>Na</c><c>   1</c></rc>
    <rc><c>Na</c><c>   1</c></rc>
    <rc><c>Na</c><c>   1</c></rc>
    <rc><c>Na</c><c>   1</c></rc>
    <rc><c>Na</c><c>   1</c></rc>
    <rc><c>Na</c><c>   1</c></rc>
    <rc><c>Na</c><c>   1</c></rc>
    <rc><c>Na</c><c>   1</c></rc>
    <rc><c>Na</c><c>   1</c></rc>
   </set>
  </array>
  <array name="atomtypes" >
   <dimension dim="1">type</dimension>
   <field type="int">atomspertype</field>
   <field type="string">element</field>
   <field>mass</field>
   <field>valence</field>
   <field type="string">pseudopotential</field>
   <set>
    <rc><c>  12</c><c>Na</c><c>     22.99000000</c><c>      1.00000000</c><c>  PAW_PBE Na 08Apr2002                  </c></rc>
   </set>
  </array>
 </atominfo>
 <structure name="initialpos" >
  <crystal>
   <varray name="basis" >
    <v>       5.73109405       1.53564202       0.00000000 </v>
    <v>       1.53564202       5.73109405       0.00000000 </v>
    <v>     -25.32234327     -25.32234327      25.32234327 </v>
   </varray>
   <i name="volume">    772.00842101 </i>
   <varray name="rec_basis" >
    <v>       0.18798335      -0.05036999       0.13761336 </v>
    <v>      -0.05036999       0.18798335       0.13761336 </v>
    <v>       0.00000000       0.00000000       0.03949082 </v>
   </varray>
  </crystal>
  <varray name="positions" >
   <v>       0.50000095       0.50000095       0.23694490 </v>
   <v>       0.00000010       0.00000010       0.28477288 </v>
   <v>       0.50000095       0.50000095       0.33260134 </v>
   <v>       0.00000010       0.00000010       0.38042932 </v>
   <v>       0.50000095       0.50000095       0.42825779 </v>
   <v>       0.00000010       0.00000010       0.47608577 </v>
   <v>       0.50000095       0.50000095       0.52391423 </v>
   <v>       0.00000010       0.00000010       0.57174221 </v>
   <v>       0.50000095       0.50000095       0.61957068 </v>
   <v>       0.00000010       0.00000010       0.66739866 </v>
   <v>       0.50000095       0.50000095       0.71522712 </v>
   <v>       0.00000010       0.00000010       0.76305510 </v>
  </varray>
 </structure>
 <calculation>
  <scstep>
   <time name="dav">    0.08    0.09</time>
   <time name="total">    0.14    0.15</time>
   <dipole>
    <v name="dipole">     -0.00000000      -0.00000000       0.00000000 </v>
    <i name="Tr[quadrupol]">    -30.74981669 </i>
    <i name="Echarged">      0.00000000 </i>
    <i name="Edipol_quadrupol">      0.00000000 </i>
    <i name="Eion">      0.00000000 </i>
   </dipole>
   <energy>
    <i name="alphaZ">     -3.41642727 </i>
    <i name="ewald">     91.77090035 </i>
    <i name="hartreedc">   -145.45057632 </i>
    <i name="XCdc">   -439.32891858 </i>
    <i name="pawpsdc">    478.51375300 </i>
    <i name="pawaedc">    -28.41183042 </i>
    <i name="eentropy">     -0.03436181 </i>
    <i name="bandstr">    -16.11831372 </i>
    <i name="atom">     61.89659342 </i>
    <i name="e_fr_energy">     -0.57918135 </i>
    <i name="e_wo_entrp">     -0.54481955 </i>
    <i name="e_0_energy">     -0.56200045 </i>
   </energy>
  </scstep>
  <scstep>
   <time name="dav">    0.08    0.08</time>
   <time name="total">    0.08    0.08</time>
   <dipole>
    <v name="dipole">     -0.00000000      -0.00000000       0.00000000 </v>
    <i name="Tr[quadrupol]">    -30.74981669 </i>
    <i name="Echarged">      0.00000000 </i>
    <i name="Edipol_quadrupol">      0.00000000 </i>
    <i name="Eion">      0.00000000 </i>
   </dipole>
   <energy>
    <i name="e_fr_energy">    -14.80507694 </i>
    <i name="e_wo_entrp">    -14.75288525 </i>
    <i name="e_0_energy">    -14.77898109 </i>
   </energy>
  </scstep>
  <scstep>
   <time name="dav">    0.07    0.07</time>
   <time name="total">    0.07    0.07</time>
   <dipole>
    <v name="dipole">     -0.00000000      -0.00000000       0.00000000 </v>
    <i name="Tr[quadrupol]">    -30.74981669 </i>
    <i name="Echarged">      0.00000000 </i>
    <i name="Edipol_quadrupol">      0.00000000 </i>
    <i name="Eion">      0.00000000 </i>
   </dipole>
   <energy>
    <i name="e_fr_energy">    -15.50787429 </i>
    <i name="e_wo_entrp">    -15.46535766 </i>
    <i name="e_0_energy">    -15.48661598 </i>
   </energy>
  </scstep>
  <scstep>
   <time name="dav">    0.07    0.07</time>
   <time name="total">    0.07    0.07</time>
   <dipole>
    <v name="dipole">     -0.00000000      -0.00000000       0.00000000 </v>
    <i name="Tr[quadrupol]">    -30.74981669 </i>
    <i name="Echarged">      0.00000000 </i>
    <i name="Edipol_quadrupol">      0.00000000 </i>
    <i name="Eion">      0.00000000 </i>
   </dipole>
   <energy>
    <i name="e_fr_energy">    -15.54005441 </i>
    <i name="e_wo_entrp">    -15.49805851 </i>
    <i name="e_0_energy">    -15.51905646 </i>
   </energy>
  </scstep>
  <scstep>
   <time name="dav">    0.08    0.08</time>
   <time name="total">    0.11    0.11</time>
   <dipole>
    <v name="dipole">     -0.00000000      -0.00000000       0.00000000 </v>
    <i name="Tr[quadrupol]">    -30.74981669 </i>
    <i name="Echarged">      0.00000000 </i>
    <i name="Edipol_quadrupol">      0.00000000 </i>
    <i name="Eion">      0.00000000 </i>
   </dipole>
   <energy>
    <i name="e_fr_energy">    -15.54098064 </i>
    <i name="e_wo_entrp">    -15.49899280 </i>
    <i name="e_0_energy">    -15.51998672 </i>
   </energy>
  </scstep>
  <scstep>
   <time name="diag">    0.02    0.03</time>
   <time name="diis">    0.02    0.02</time>
   <time name="orth">    0.00    0.00</time>
   <time name="total">    0.12    0.12</time>
   <dipole>
    <v name="dipole">     -0.00000000      -0.00000000       0.00000000 </v>
    <i name="Tr[quadrupol]">    -31.36974041 </i>
    <i name="Echarged">      0.00000000 </i>
    <i name="Edipol_quadrupol">      0.00000000 </i>
    <i name="Eion">      0.00000000 </i>
   </dipole>
   <energy>
    <i name="e_fr_energy">    -15.13548720 </i>
    <i name="e_wo_entrp">    -15.07528601 </i>
    <i name="e_0_energy">    -15.10538661 </i>
   </energy>
  </scstep>
  <scstep>
   <time name="diag">    0.02    0.02</time>
   <time name="diis">    0.02    0.02</time>
   <time name="orth">    0.00    0.00</time>
   <time name="total">    0.12    0.12</time>
   <dipole>
    <v name="dipole">     -0.00000000      -0.00000000       0.00000000 </v>
    <i name="Tr[quadrupol]">    -33.18981583 </i>
    <i name="Echarged">      0.00000000 </i>
    <i name="Edipol_quadrupol">      0.00000000 </i>
    <i name="Eion">      0.00000000 </i>
   </dipole>
   <energy>
    <i name="e_fr_energy">    -14.88109993 </i>
    <i name="e_wo_entrp">    -14.80382562 </i>
    <i name="e_0_energy">    -14.84246277 </i>
   </energy>
  </scstep>
  <scstep>
   <time name="diag">    0.02    0.02</time>
   <time name="diis">    0.02    0.02</time>
   <time name="orth">    0.00    0.00</time>
   <time name="total">    0.12    0.12</time>
   <dipole>
    <v name="dipole">     -0.00000000      -0.00000000       0.00000000 </v>
    <i name="Tr[quadrupol]">    -34.94703263 </i>
    <i name="Echarged">      0.00000000 </i>
    <i name="Edipol_quadrupol">      0.00000000 </i>
    <i name="Eion">      0.00000000 </i>
   </dipole>
   <energy>
    <i name="e_fr_energy">    -14.84806394 </i>
    <i name="e_wo_entrp">    -14.77040541 </i>
    <i name="e_0_energy">    -14.80923468 </i>
   </energy>
  </scstep>
  <scstep>
   <time name="diag">    0.04    0.09</time>
   <time name="diis">    0.02    0.02</time>
   <time name="orth">    0.00    0.00</time>
   <time name="total">    0.15    0.21</time>
   <dipole>
    <v name="dipole">      0.00000000       0.00000000      -0.00000000 </v>
    <i name="Tr[quadrupol]">    -38.04326430 </i>
    <i name="Echarged">      0.00000000 </i>
    <i name="Edipol_quadrupol">      0.00000000 </i>
    <i name="Eion">      0.00000000 </i>
   </dipole>
   <energy>
    <i name="e_fr_energy">    -14.81865602 </i>
    <i name="e_wo_entrp">    -14.74169437 </i>
    <i name="e_0_energy">    -14.78017519 </i>
   </energy>
  </scstep>
  <scstep>
   <time name="diag">    0.02    0.02</time>
   <time name="diis">    0.02    0.02</time>
   <time name="orth">    0.00    0.00</time>
   <time name="total">    0.12    0.12</time>
   <dipole>
    <v name="dipole">      0.00000000       0.00000000      -0.00000000 </v>
    <i name="Tr[quadrupol]">    -45.92624116 </i>
    <i name="Echarged">      0.00000000 </i>
    <i name="Edipol_quadrupol">      0.00000000 </i>
    <i name="Eion">      0.00000000 </i>
   </dipole>
   <energy>
    <i name="e_fr_energy">    -14.79844311 </i>
    <i name="e_wo_entrp">    -14.72190066 </i>
    <i name="e_0_energy">    -14.76017189 </i>
   </energy>
  </scstep>
  <scstep>
   <time name="diag">    0.02    0.02</time>
   <time name="diis">    0.02    0.02</time>
   <time name="orth">    0.00    0.00</time>
   <time name="total">    0.12    0.12</time>
   <dipole>
    <v name="dipole">      0.00000000       0.00000000      -0.00000000 </v>
    <i name="Tr[quadrupol]">    -49.01109435 </i>
    <i name="Echarged">      0.00000000 </i>
    <i name="Edipol_quadrupol">      0.00000000 </i>
    <i name="Eion">      0.00000000 </i>
   </dipole>
   <energy>
    <i name="e_fr_energy">    -14.78847017 </i>
    <i name="e_wo_entrp">    -14.71247881 </i>
    <i name="e_0_energy">    -14.75047449 </i>
   </energy>
  </scstep>
  <scstep>
   <time name="diag">    0.02    0.02</time>
   <time name="diis">    0.02    0.02</time>
   <time name="orth">    0.00    0.00</time>
   <time name="total">    0.12    0.12</time>
   <dipole>
    <v name="dipole">      0.00000000       0.00000000      -0.00000000 </v>
    <i name="Tr[quadrupol]">    -58.27238748 </i>
    <i name="Echarged">      0.00000000 </i>
    <i name="Edipol_quadrupol">      0.00000000 </i>
    <i name="Eion">      0.00000000 </i>
   </dipole>
   <energy>
    <i name="e_fr_energy">    -14.80254872 </i>
    <i name="e_wo_entrp">    -14.72822913 </i>
    <i name="e_0_energy">    -14.76538893 </i>
   </energy>
  </scstep>
  <scstep>
   <time name="diag">    0.04    0.04</time>
   <time name="diis">    0.02    0.02</time>
   <time name="orth">    0.00    0.00</time>
   <time name="total">    0.16    0.17</time>
   <dipole>
    <v name="dipole">      0.00000000       0.00000000      -0.00000000 </v>
    <i name="Tr[quadrupol]">    -57.75994812 </i>
    <i name="Echarged">      0.00000000 </i>
    <i name="Edipol_quadrupol">      0.00000000 </i>
    <i name="Eion">      0.00000000 </i>
   </dipole>
   <energy>
    <i name="e_fr_energy">    -14.80245268 </i>
    <i name="e_wo_entrp">    -14.72758379 </i>
    <i name="e_0_energy">    -14.76501824 </i>
   </energy>
  </scstep>
  <scstep>
   <time name="diag">    0.02    0.02</time>
   <time name="diis">    0.02    0.02</time>
   <time name="orth">    0.00    0.00</time>
   <time name="total">    0.12    0.13</time>
   <dipole>
    <v name="dipole">      0.00000000       0.00000000      -0.00000000 </v>
    <i name="Tr[quadrupol]">    -58.89222919 </i>
    <i name="Echarged">      0.00000000 </i>
    <i name="Edipol_quadrupol">      0.00000000 </i>
    <i name="Eion">      0.00000000 </i>
   </dipole>
   <energy>
    <i name="e_fr_energy">    -14.80693371 </i>
    <i name="e_wo_entrp">    -14.73210284 </i>
    <i name="e_0_energy">    -14.76951828 </i>
   </energy>
  </scstep>
  <scstep>
   <time name="diag">    0.02    0.02</time>
   <time name="diis">    0.02    0.02</time>
   <time name="orth">    0.00    0.00</time>
   <time name="total">    0.12    0.12</time>
   <dipole>
    <v name="dipole">      0.00000000       0.00000000      -0.00000000 </v>
    <i name="Tr[quadrupol]">    -58.27540404 </i>
    <i name="Echarged">      0.00000000 </i>
    <i name="Edipol_quadrupol">      0.00000000 </i>
    <i name="Eion">      0.00000000 </i>
   </dipole>
   <energy>
    <i name="e_fr_energy">    -14.80789092 </i>
    <i name="e_wo_entrp">    -14.73294828 </i>
    <i name="e_0_energy">    -14.77041960 </i>
   </energy>
  </scstep>
  <scstep>
   <time name="diag">    0.02    0.02</time>
   <time name="diis">    0.02    0.02</time>
   <time name="orth">    0.00    0.00</time>
   <time name="total">    0.12    0.12</time>
   <dipole>
    <v name="dipole">      0.00000000       0.00000000      -0.00000000 </v>
    <i name="Tr[quadrupol]">    -58.52898659 </i>
    <i name="Echarged">      0.00000000 </i>
    <i name="Edipol_quadrupol">      0.00000000 </i>
    <i name="Eion">      0.00000000 </i>
   </dipole>
   <energy>
    <i name="e_fr_energy">    -14.80801856 </i>
    <i name="e_wo_entrp">    -14.73311686 </i>
    <i name="e_0_energy">    -14.77056771 </i>
   </energy>
  </scstep>
  <scstep>
   <time name="diag">    0.02    0.02</time>
   <time name="diis">    0.02    0.02</time>
   <time name="orth">    0.00    0.00</time>
   <time name="total">    0.12    0.12</time>
   <dipole>
    <v name="dipole">      0.00000000       0.00000000      -0.00000000 </v>
    <i name="Tr[quadrupol]">    -58.53955748 </i>
    <i name="Echarged">      0.00000000 </i>
    <i name="Edipol_quadrupol">      0.00000000 </i>
    <i name="Eion">      0.00000000 </i>
   </dipole>
   <energy>
    <i name="e_fr_energy">    -14.80803049 </i>
    <i name="e_wo_entrp">    -14.73313882 </i>
    <i name="e_0_energy">    -14.77058466 </i>
   </energy>
  </scstep>
  <scstep>
   <time name="diag">    0.02    0.02</time>
   <time name="diis">    0.02    0.02</time>
   <time name="orth">    0.00    0.00</time>
   <time name="total">    0.12    0.12</time>
   <dipole>
    <v name="dipole">      0.00000000       0.00000000      -0.00000000 </v>
    <i name="Tr[quadrupol]">    -58.54188095 </i>
    <i name="Echarged">      0.00000000 </i>
    <i name="Edipol_quadrupol">      0.00000000 </i>
    <i name="Eion">      0.00000000 </i>
   </dipole>
   <energy>
    <i name="e_fr_energy">    -14.80803075 </i>
    <i name="e_wo_entrp">    -14.73314161 </i>
    <i name="e_0_energy">    -14.77058618 </i>
   </energy>
  </scstep>
  <scstep>
   <time name="diag">    0.02    0.02</time>
   <time name="diis">    0.02    0.02</time>
   <time name="orth">    0.00    0.00</time>
   <time name="total">    0.12    0.12</time>
   <dipole>
    <v name="dipole">      0.00000000       0.00000000      -0.00000000 </v>
    <i name="Tr[quadrupol]">    -58.55056846 </i>
    <i name="Echarged">      0.00000000 </i>
    <i name="Edipol_quadrupol">      0.00000000 </i>
    <i name="Eion">      0.00000000 </i>
   </dipole>
   <energy>
    <i name="e_fr_energy">    -14.80803069 </i>
    <i name="e_wo_entrp">    -14.73314776 </i>
    <i name="e_0_energy">    -14.77058923 </i>
   </energy>
  </scstep>
  <scstep>
   <time name="diag">    0.02    0.02</time>
   <time name="diis">    0.02    0.02</time>
   <time name="orth">    0.00    0.00</time>
   <time name="total">    0.12    0.12</time>
   <dipole>
    <v name="dipole">      0.00000000       0.00000000      -0.00000000 </v>
    <i name="Tr[quadrupol]">    -58.55936344 </i>
    <i name="Echarged">      0.00000000 </i>
    <i name="Edipol_quadrupol">      0.00000000 </i>
    <i name="Eion">      0.00000000 </i>
   </dipole>
   <energy>
    <i name="e_fr_energy">    -14.80803069 </i>
    <i name="e_wo_entrp">    -14.73314992 </i>
    <i name="e_0_energy">    -14.77059030 </i>
   </energy>
  </scstep>
  <scstep>
   <time name="diag">    0.02    0.02</time>
   <time name="diis">    0.02    0.02</time>
   <time name="orth">    0.00    0.00</time>
   <time name="total">    0.12    0.12</time>
   <dipole>
    <v name="dipole">      0.00000000       0.00000000      -0.00000000 </v>
    <i name="Tr[quadrupol]">    -58.55905304 </i>
    <i name="Echarged">      0.00000000 </i>
    <i name="Edipol_quadrupol">      0.00000000 </i>
    <i name="Eion">      0.00000000 </i>
   </dipole>
   <energy>
    <i name="e_fr_energy">    -14.80803073 </i>
    <i name="e_wo_entrp">    -14.73314979 </i>
    <i name="e_0_energy">    -14.77059026 </i>
   </energy>
  </scstep>
  <scstep>
   <time name="diag">    0.02    0.02</time>
   <time name="diis">    0.02    0.02</time>
   <time name="orth">    0.00    0.00</time>
   <time name="total">    0.09    0.10</time>
   <dipole>
    <v name="dipole">      0.00000000       0.00000000      -0.00000000 </v>
    <i name="Tr[quadrupol]">    -58.55813524 </i>
    <i name="Echarged">      0.00000000 </i>
    <i name="Edipol_quadrupol">      0.00000000 </i>
    <i name="Eion">      0.00000000 </i>
   </dipole>
   <energy>
    <i name="alphaZ">     -3.41642727 </i>
    <i name="ewald">     91.77090035 </i>
    <i name="hartreedc">   -153.66237325 </i>
    <i name="XCdc">   -438.53876876 </i>
    <i name="pawpsdc">    473.36573294 </i>
    <i name="pawaedc">    -23.28935078 </i>
    <i name="eentropy">     -0.07488102 </i>
    <i name="bandstr">    -22.85945636 </i>
    <i name="atom">     61.89659342 </i>
    <i name="e_fr_energy">    -14.80803074 </i>
    <i name="e_wo_entrp">    -14.73314971 </i>
    <i name="e_0_energy">    -14.77059023 </i>
   </energy>
  </scstep>
  <structure>
   <crystal>
    <varray name="basis" >
     <v>       5.73109405       1.53564202       0.00000000 </v>
     <v>       1.53564202       5.73109405       0.00000000 </v>
     <v>     -25.32234327     -25.32234327      25.32234327 </v>
    </varray>
    <i name="volume">    772.00842101 </i>
    <varray name="rec_basis" >
     <v>       0.18798335      -0.05036999       0.13761336 </v>
     <v>      -0.05036999       0.18798335       0.13761336 </v>
     <v>       0.00000000       0.00000000       0.03949082 </v>
    </varray>
   </crystal>
   <varray name="positions" >
    <v>       0.50000095       0.50000095       0.23694490 </v>
    <v>       0.00000010       0.00000010       0.28477288 </v>
    <v>       0.50000095       0.50000095       0.33260134 </v>
    <v>       0.00000010       0.00000010       0.38042932 </v>
    <v>       0.50000095       0.50000095       0.42825779 </v>
    <v>       0.00000010       0.00000010       0.47608577 </v>
    <v>       0.50000095       0.50000095       0.52391423 </v>
    <v>       0.00000010       0.00000010       0.57174221 </v>
    <v>       0.50000095       0.50000095       0.61957068 </v>
    <v>       0.00000010       0.00000010       0.66739866 </v>
    <v>       0.50000095       0.50000095       0.71522712 </v>
    <v>       0.00000010       0.00000010       0.76305510 </v>
   </varray>
  </structure>
  <varray name="forces" >
   <v>      -0.00399581      -0.00399581       0.09143723 </v>
   <v>       0.00304170       0.00304170       0.07622077 </v>
   <v>       0.00163037       0.00163037      -0.04027449 </v>
   <v>      -0.00320018      -0.00320018      -0.01422021 </v>
   <v>       0.00083450       0.00083450      -0.02929809 </v>
   <v>       0.00187338       0.00187338      -0.02310113 </v>
   <v>      -0.00187338      -0.00187338       0.02310113 </v>
   <v>      -0.00083450      -0.00083450       0.02929809 </v>
   <v>       0.00320018       0.00320018       0.01422021 </v>
   <v>      -0.00163037      -0.00163037       0.04027449 </v>
   <v>      -0.00304170      -0.00304170      -0.07622077 </v>
   <v>       0.00399581       0.00399581      -0.09143723 </v>
  </varray>
  <varray name="stress" >
   <v>      -0.42484119       0.00088882       0.01791712 </v>
   <v>       0.00088882      -0.42484119       0.01791712 </v>
   <v>       0.01791712       0.01791712      -3.17081411 </v>
  </varray>
  <energy>
   <i name="e_fr_energy">    -14.80803074 </i>
   <i name="e_wo_entrp">    -14.73314971 </i>
   <i name="e_0_energy">    -14.77059023 </i>
  </energy>
  <time name="totalsc">    2.72    2.84</time>
  <eigenvalues>
   <array>
    <dimension dim="1">band</dimension>
    <dimension dim="2">kpoint</dimension>
    <dimension dim="3">spin</dimension>
    <field>eigene</field>
    <field>occ</field>
    <set>
     <set comment="spin 1">
      <set comment="kpoint 1">
       <r>   -3.8078    1.0000 </r>
       <r>   -3.4031    1.0000 </r>
       <r>   -2.7645    1.0000 </r>
       <r>   -1.9022    1.0000 </r>
       <r>   -0.9670    0.9439 </r>
       <r>   -0.0049    0.0000 </r>
       <r>    0.8167    0.0000 </r>
       <r>    1.5187    0.0000 </r>
       <r>    1.5188    0.0000 </r>
       <r>    1.5311    0.0000 </r>
       <r>    1.5311    0.0000 </r>
       <r>    1.8319    0.0000 </r>
       <r>    1.8751    0.0000 </r>
       <r>    1.8751    0.0000 </r>
       <r>    1.9077    0.0000 </r>
       <r>    1.9077    0.0000 </r>
      </set>
      <set comment="kpoint 2">
       <r>   -3.1623    1.0000 </r>
       <r>   -2.7617    1.0000 </r>
       <r>   -2.1305    1.0000 </r>
       <r>   -1.3054    1.0000 </r>
       <r>   -1.2351    1.0000 </r>
       <r>   -0.8721    0.5971 </r>
       <r>   -0.3523    0.0000 </r>
       <r>   -0.2371    0.0000 </r>
       <r>    0.3625    0.0000 </r>
       <r>    0.5171    0.0000 </r>
       <r>    0.6317    0.0000 </r>
       <r>    0.7313    0.0000 </r>
       <r>    0.8697    0.0000 </r>
       <r>    1.2467    0.0000 </r>
       <r>    1.3258    0.0000 </r>
       <r>    1.3976    0.0000 </r>
      </set>
      <set comment="kpoint 3">
       <r>   -3.1623    1.0000 </r>
       <r>   -2.7617    1.0000 </r>
       <r>   -2.1305    1.0000 </r>
       <r>   -1.3055    1.0000 </r>
       <r>   -1.2352    1.0000 </r>
       <r>   -0.8721    0.5971 </r>
       <r>   -0.3507    0.0000 </r>
       <r>   -0.2369    0.0000 </r>
       <r>    0.3625    0.0000 </r>
       <r>    0.5140    0.0000 </r>
       <r>    0.6238    0.0000 </r>
       <r>    0.7313    0.0000 </r>
       <r>    0.8695    0.0000 </r>
       <r>    1.2516    0.0000 </r>
       <r>    1.3258    0.0000 </r>
       <r>    1.4196    0.0000 </r>
      </set>
      <set comment="kpoint 4">
       <r>   -1.8969    1.0000 </r>
       <r>   -1.8903    1.0000 </r>
       <r>   -1.8903    1.0000 </r>
       <r>   -1.5106    1.0000 </r>
       <r>   -1.4964    1.0000 </r>
       <r>   -1.4964    1.0000 </r>
       <r>   -0.8810    0.6447 </r>
       <r>   -0.8630    0.5463 </r>
       <r>   -0.8629    0.5458 </r>
       <r>   -0.0206    0.0000 </r>
       <r>   -0.0202    0.0000 </r>
       <r>    0.0194    0.0000 </r>
       <r>    0.7499    0.0000 </r>
       <r>    0.8978    0.0000 </r>
       <r>    0.9013    0.0000 </r>
       <r>    1.8754    0.0000 </r>
      </set>
     </set>
    </set>
   </array>
  </eigenvalues>
  <separator name="orbital magnetization" >
   <v name="MAGDIPOLOUT">      0.00000000      0.00000000      0.00000000</v>
  </separator>
  <dos>
   <i name="efermi">     -0.85471712 </i>
   <total>
    <array>
     <dimension dim="1">gridpoints</dimension>
     <dimension dim="2">spin</dimension>
     <field>energy</field>
     <field>total</field>
     <field>integrated</field>
     <set>
      <set comment="spin 1">
       <r>    -4.8078     0.0000     0.0000 </r>
       <r>    -4.7821     0.0000     0.0000 </r>
       <r>    -4.7564     0.0000     0.0000 </r>
       <r>    -4.7306     0.0000     0.0000 </r>
       <r>    -4.7049     0.0000     0.0000 </r>
       <r>    -4.6792     0.0000     0.0000 </r>
       <r>    -4.6535     0.0000     0.0000 </r>
       <r>    -4.6278     0.0000     0.0000 </r>
       <r>    -4.6021     0.0000     0.0000 </r>
       <r>    -4.5763     0.0000     0.0000 </r>
       <r>    -4.5506     0.0000     0.0000 </r>
       <r>    -4.5249     0.0000     0.0000 </r>
       <r>    -4.4992     0.0000     0.0000 </r>
       <r>    -4.4735     0.0000     0.0000 </r>
       <r>    -4.4477     0.0000     0.0000 </r>
       <r>    -4.4220     0.0000     0.0000 </r>
       <r>    -4.3963     0.0000     0.0000 </r>
       <r>    -4.3706     0.0000     0.0000 </r>
       <r>    -4.3449     0.0000     0.0000 </r>
       <r>    -4.3192     0.0000     0.0000 </r>
       <r>    -4.2934     0.0000     0.0000 </r>
       <r>    -4.2677     0.0000     0.0000 </r>
       <r>    -4.2420     0.0000     0.0000 </r>
       <r>    -4.2163     0.0000     0.0000 </r>
       <r>    -4.1906     0.0000     0.0000 </r>
       <r>    -4.1648     0.0000     0.0000 </r>
       <r>    -4.1391     0.0000     0.0000 </r>
       <r>    -4.1134     0.0001     0.0000 </r>
       <r>    -4.0877     0.0003     0.0000 </r>
       <r>    -4.0620     0.0011     0.0000 </r>
       <r>    -4.0363     0.0039     0.0001 </r>
       <r>    -4.0105     0.0126     0.0005 </r>
       <r>    -3.9848     0.0353     0.0014 </r>
       <r>    -3.9591     0.0868     0.0036 </r>
       <r>    -3.9334     0.1873     0.0084 </r>
       <r>    -3.9077     0.3549     0.0175 </r>
       <r>    -3.8819     0.5898     0.0327 </r>
       <r>    -3.8562     0.8601     0.0548 </r>
       <r>    -3.8305     1.1003     0.0831 </r>
       <r>    -3.8048     1.2350     0.1149 </r>
       <r>    -3.7791     1.2162     0.1462 </r>
       <r>    -3.7533     1.0508     0.1732 </r>
       <r>    -3.7276     0.7965     0.1937 </r>
       <r>    -3.7019     0.5298     0.2073 </r>
       <r>    -3.6762     0.3095     0.2153 </r>
       <r>    -3.6505     0.1598     0.2194 </r>
       <r>    -3.6248     0.0765     0.2213 </r>
       <r>    -3.5990     0.0447     0.2225 </r>
       <r>    -3.5733     0.0551     0.2239 </r>
       <r>    -3.5476     0.1108     0.2268 </r>
       <r>    -3.5219     0.2257     0.2326 </r>
       <r>    -3.4962     0.4117     0.2432 </r>
       <r>    -3.4704     0.6608     0.2601 </r>
       <r>    -3.4447     0.9315     0.2841 </r>
       <r>    -3.4190     1.1548     0.3138 </r>
       <r>    -3.3933     1.2666     0.3464 </r>
       <r>    -3.3676     1.2523     0.3786 </r>
       <r>    -3.3419     1.1805     0.4089 </r>
       <r>    -3.3161     1.2021     0.4399 </r>
       <r>    -3.2904     1.5113     0.4787 </r>
       <r>    -3.2647     2.2705     0.5371 </r>
       <r>    -3.2390     3.5120     0.6274 </r>
       <r>    -3.2133     5.0538     0.7574 </r>
       <r>    -3.1875     6.4997     0.9246 </r>
       <r>    -3.1618     7.3749     1.1143 </r>
       <r>    -3.1361     7.3539     1.3034 </r>
       <r>    -3.1104     6.4367     1.4689 </r>
       <r>    -3.0847     4.9438     1.5961 </r>
       <r>    -3.0590     3.3321     1.6818 </r>
       <r>    -3.0332     1.9726     1.7325 </r>
       <r>    -3.0075     1.0336     1.7591 </r>
       <r>    -2.9818     0.5065     1.7721 </r>
       <r>    -2.9561     0.3127     1.7802 </r>
       <r>    -2.9304     0.4058     1.7906 </r>
       <r>    -2.9046     0.8219     1.8117 </r>
       <r>    -2.8789     1.6609     1.8544 </r>
       <r>    -2.8532     3.0001     1.9316 </r>
       <r>    -2.8275     4.7661     2.0542 </r>
       <r>    -2.8018     6.6454     2.2251 </r>
       <r>    -2.7760     8.1298     2.4342 </r>
       <r>    -2.7503     8.7264     2.6586 </r>
       <r>    -2.7246     8.2182     2.8700 </r>
       <r>    -2.6989     6.7905     3.0446 </r>
       <r>    -2.6732     4.9229     3.1712 </r>
       <r>    -2.6475     3.1313     3.2517 </r>
       <r>    -2.6217     1.7475     3.2967 </r>
       <r>    -2.5960     0.8556     3.3187 </r>
       <r>    -2.5703     0.3675     3.3281 </r>
       <r>    -2.5446     0.1385     3.3317 </r>
       <r>    -2.5189     0.0458     3.3329 </r>
       <r>    -2.4931     0.0133     3.3332 </r>
       <r>    -2.4674     0.0034     3.3333 </r>
       <r>    -2.4417     0.0010     3.3333 </r>
       <r>    -2.4160     0.0013     3.3334 </r>
       <r>    -2.3903     0.0048     3.3335 </r>
       <r>    -2.3646     0.0180     3.3340 </r>
       <r>    -2.3388     0.0592     3.3355 </r>
       <r>    -2.3131     0.1708     3.3399 </r>
       <r>    -2.2874     0.4325     3.3510 </r>
       <r>    -2.2617     0.9609     3.3757 </r>
       <r>    -2.2360     1.8731     3.4239 </r>
       <r>    -2.2102     3.2034     3.5063 </r>
       <r>    -2.1845     4.8070     3.6299 </r>
       <r>    -2.1588     6.3308     3.7927 </r>
       <r>    -2.1331     7.3233     3.9811 </r>
       <r>    -2.1074     7.4598     4.1729 </r>
       <r>    -2.0817     6.7474     4.3464 </r>
       <r>    -2.0559     5.5621     4.4895 </r>
       <r>    -2.0302     4.4863     4.6049 </r>
       <r>    -2.0045     4.0505     4.7090 </r>
       <r>    -1.9788     4.5106     4.8250 </r>
       <r>    -1.9531     5.7397     4.9727 </r>
       <r>    -1.9273     7.2611     5.1594 </r>
       <r>    -1.9016     8.4291     5.3762 </r>
       <r>    -1.8759     8.7115     5.6002 </r>
       <r>    -1.8502     7.9374     5.8044 </r>
       <r>    -1.8245     6.3567     5.9679 </r>
       <r>    -1.7987     4.4708     6.0828 </r>
       <r>    -1.7730     2.7623     6.1539 </r>
       <r>    -1.7473     1.5059     6.1926 </r>
       <r>    -1.7216     0.7472     6.2118 </r>
       <r>    -1.6959     0.4059     6.2223 </r>
       <r>    -1.6702     0.3995     6.2325 </r>
       <r>    -1.6444     0.7166     6.2510 </r>
       <r>    -1.6187     1.4139     6.2873 </r>
       <r>    -1.5930     2.5433     6.3527 </r>
       <r>    -1.5673     4.0417     6.4567 </r>
       <r>    -1.5416     5.6525     6.6021 </r>
       <r>    -1.5158     6.9672     6.7812 </r>
       <r>    -1.4901     7.6094     6.9770 </r>
       <r>    -1.4644     7.4711     7.1691 </r>
       <r>    -1.4387     6.8335     7.3448 </r>
       <r>    -1.4130     6.2628     7.5059 </r>
       <r>    -1.3873     6.3296     7.6687 </r>
       <r>    -1.3615     7.3162     7.8569 </r>
       <r>    -1.3358     9.0723     8.0902 </r>
       <r>    -1.3101    11.0793     8.3751 </r>
       <r>    -1.2844    12.6691     8.7010 </r>
       <r>    -1.2587    13.2848     9.0426 </r>
       <r>    -1.2329    12.6752     9.3686 </r>
       <r>    -1.2072    10.9612     9.6505 </r>
       <r>    -1.1815     8.5635     9.8708 </r>
       <r>    -1.1558     6.0306    10.0259 </r>
       <r>    -1.1301     3.8429    10.1247 </r>
       <r>    -1.1044     2.2862    10.1835 </r>
       <r>    -1.0786     1.4448    10.2206 </r>
       <r>    -1.0529     1.2918    10.2539 </r>
       <r>    -1.0272     1.8030    10.3002 </r>
       <r>    -1.0015     3.0177    10.3778 </r>
       <r>    -0.9758     4.9996    10.5064 </r>
       <r>    -0.9500     7.6981    10.7044 </r>
       <r>    -0.9243    10.7775    10.9816 </r>
       <r>    -0.8986    13.5615    11.3304 </r>
       <r>    -0.8729    15.2182    11.7218 </r>
       <r>    -0.8472    15.1477    12.1113 </r>
       <r>    -0.8214    13.3255    12.4540 </r>
       <r>    -0.7957    10.3359    12.7199 </r>
       <r>    -0.7700     7.0580    12.9014 </r>
       <r>    -0.7443     4.2391    13.0104 </r>
       <r>    -0.7186     2.2380    13.0680 </r>
       <r>    -0.6929     1.0382    13.0947 </r>
       <r>    -0.6671     0.4232    13.1056 </r>
       <r>    -0.6414     0.1523    13.1095 </r>
       <r>    -0.6157     0.0514    13.1108 </r>
       <r>    -0.5900     0.0278    13.1115 </r>
       <r>    -0.5643     0.0525    13.1129 </r>
       <r>    -0.5385     0.1463    13.1166 </r>
       <r>    -0.5128     0.3775    13.1263 </r>
       <r>    -0.4871     0.8600    13.1484 </r>
       <r>    -0.4614     1.7247    13.1928 </r>
       <r>    -0.4357     3.0522    13.2713 </r>
       <r>    -0.4100     4.7863    13.3944 </r>
       <r>    -0.3842     6.6978    13.5667 </r>
       <r>    -0.3585     8.4561    13.7841 </r>
       <r>    -0.3328     9.7819    14.0357 </r>
       <r>    -0.3071    10.5593    14.3073 </r>
       <r>    -0.2814    10.8091    14.5853 </r>
       <r>    -0.2556    10.5657    14.8570 </r>
       <r>    -0.2299     9.8135    15.1094 </r>
       <r>    -0.2042     8.5695    15.3298 </r>
       <r>    -0.1785     7.0217    15.5104 </r>
       <r>    -0.1528     5.5627    15.6534 </r>
       <r>    -0.1271     4.6545    15.7731 </r>
       <r>    -0.1013     4.6091    15.8917 </r>
       <r>    -0.0756     5.4189    16.0310 </r>
       <r>    -0.0499     6.7245    16.2040 </r>
       <r>    -0.0242     7.9426    16.4083 </r>
       <r>     0.0015     8.5096    16.6271 </r>
       <r>     0.0273     8.1290    16.8362 </r>
       <r>     0.0530     6.8868    17.0133 </r>
       <r>     0.0787     5.1674    17.1462 </r>
       <r>     0.1044     3.4359    17.2346 </r>
       <r>     0.1301     2.0361    17.2869 </r>
       <r>     0.1558     1.1129    17.3155 </r>
       <r>     0.1816     0.6656    17.3327 </r>
       <r>     0.2073     0.6550    17.3495 </r>
       <r>     0.2330     1.0809    17.3773 </r>
       <r>     0.2587     1.9773    17.4282 </r>
       <r>     0.2844     3.3311    17.5138 </r>
       <r>     0.3102     4.9826    17.6420 </r>
       <r>     0.3359     6.6027    17.8118 </r>
       <r>     0.3616     7.8163    18.0128 </r>
       <r>     0.3873     8.4194    18.2293 </r>
       <r>     0.4130     8.5272    18.4487 </r>
       <r>     0.4388     8.5045    18.6674 </r>
       <r>     0.4645     8.7108    18.8914 </r>
       <r>     0.4902     9.2658    19.1297 </r>
       <r>     0.5159    10.0263    19.3876 </r>
       <r>     0.5416    10.7672    19.6645 </r>
       <r>     0.5673    11.3742    19.9570 </r>
       <r>     0.5931    11.8856    20.2627 </r>
       <r>     0.6188    12.3984    20.5816 </r>
       <r>     0.6445    12.9669    20.9150 </r>
       <r>     0.6702    13.5698    21.2640 </r>
       <r>     0.6959    14.1228    21.6273 </r>
       <r>     0.7217    14.5135    22.0005 </r>
       <r>     0.7474    14.6754    22.3779 </r>
       <r>     0.7731    14.6745    22.7554 </r>
       <r>     0.7988    14.6961    23.1333 </r>
       <r>     0.8245    14.8737    23.5158 </r>
       <r>     0.8502    15.0807    23.9037 </r>
       <r>     0.8760    14.9089    24.2871 </r>
       <r>     0.9017    13.9117    24.6449 </r>
       <r>     0.9274    11.9326    24.9518 </r>
       <r>     0.9531     9.2462    25.1896 </r>
       <r>     0.9788     6.4080    25.3544 </r>
       <r>     1.0046     3.9562    25.4562 </r>
       <r>     1.0303     2.1922    25.5125 </r>
       <r>     1.0560     1.1588    25.5423 </r>
       <r>     1.0817     0.7641    25.5620 </r>
       <r>     1.1074     0.9279    25.5859 </r>
       <r>     1.1331     1.6520    25.6283 </r>
       <r>     1.1589     2.9893    25.7052 </r>
       <r>     1.1846     4.9429    25.8323 </r>
       <r>     1.2103     7.3697    26.0219 </r>
       <r>     1.2360     9.9644    26.2781 </r>
       <r>     1.2617    12.3472    26.5957 </r>
       <r>     1.2875    14.1983    26.9609 </r>
       <r>     1.3132    15.3450    27.3555 </r>
       <r>     1.3389    15.7580    27.7608 </r>
       <r>     1.3646    15.4943    28.1593 </r>
       <r>     1.3903    14.6569    28.5362 </r>
       <r>     1.4161    13.3972    28.8808 </r>
       <r>     1.4418    11.9213    29.1874 </r>
       <r>     1.4675    10.4436    29.4560 </r>
       <r>     1.4932     9.0941    29.6898 </r>
       <r>     1.5189     7.8574    29.8919 </r>
       <r>     1.5446     6.6194    30.0622 </r>
       <r>     1.5704     5.2932    30.1983 </r>
       <r>     1.5961     3.9154    30.2990 </r>
       <r>     1.6218     2.6336    30.3667 </r>
       <r>     1.6475     1.6135    30.4082 </r>
       <r>     1.6732     0.9597    30.4329 </r>
       <r>     1.6990     0.7083    30.4511 </r>
       <r>     1.7247     0.8732    30.4736 </r>
       <r>     1.7504     1.4829    30.5117 </r>
       <r>     1.7761     2.5612    30.5776 </r>
       <r>     1.8018     4.0523    30.6818 </r>
       <r>     1.8275     5.7428    30.8295 </r>
       <r>     1.8533     7.2551    31.0161 </r>
       <r>     1.8790     8.1586    31.2259 </r>
       <r>     1.9047     8.1591    31.4358 </r>
       <r>     1.9304     7.2504    31.6222 </r>
       <r>     1.9561     5.7206    31.7693 </r>
       <r>     1.9819     4.0045    31.8723 </r>
       <r>     2.0076     2.4852    31.9363 </r>
       <r>     2.0333     1.3665    31.9714 </r>
       <r>     2.0590     0.6652    31.9885 </r>
       <r>     2.0847     0.2865    31.9959 </r>
       <r>     2.1104     0.1091    31.9987 </r>
       <r>     2.1362     0.0367    31.9996 </r>
       <r>     2.1619     0.0109    31.9999 </r>
       <r>     2.1876     0.0029    32.0000 </r>
       <r>     2.2133     0.0007    32.0000 </r>
       <r>     2.2390     0.0001    32.0000 </r>
       <r>     2.2648     0.0000    32.0000 </r>
       <r>     2.2905     0.0000    32.0000 </r>
       <r>     2.3162     0.0000    32.0000 </r>
       <r>     2.3419     0.0000    32.0000 </r>
       <r>     2.3676     0.0000    32.0000 </r>
       <r>     2.3934     0.0000    32.0000 </r>
       <r>     2.4191     0.0000    32.0000 </r>
       <r>     2.4448     0.0000    32.0000 </r>
       <r>     2.4705     0.0000    32.0000 </r>
       <r>     2.4962     0.0000    32.0000 </r>
       <r>     2.5219     0.0000    32.0000 </r>
       <r>     2.5477     0.0000    32.0000 </r>
       <r>     2.5734     0.0000    32.0000 </r>
       <r>     2.5991     0.0000    32.0000 </r>
       <r>     2.6248     0.0000    32.0000 </r>
       <r>     2.6505     0.0000    32.0000 </r>
       <r>     2.6763     0.0000    32.0000 </r>
       <r>     2.7020     0.0000    32.0000 </r>
       <r>     2.7277     0.0000    32.0000 </r>
       <r>     2.7534     0.0000    32.0000 </r>
       <r>     2.7791     0.0000    32.0000 </r>
       <r>     2.8048     0.0000    32.0000 </r>
       <r>     2.8306     0.0000    32.0000 </r>
       <r>     2.8563     0.0000    32.0000 </r>
       <r>     2.8820     0.0000    32.0000 </r>
       <r>     2.9077     0.0000    32.0000 </r>
      </set>
     </set>
    </array>
   </total>
  </dos>
 </calculation>
 <structure name="finalpos" >
  <crystal>
   <varray name="basis" >
    <v>       5.73109405       1.53564202       0.00000000 </v>
    <v>       1.53564202       5.73109405       0.00000000 </v>
    <v>     -25.32234327     -25.32234327      25.32234327 </v>
   </varray>
   <i name="volume">    772.00842101 </i>
   <varray name="rec_basis" >
    <v>       0.18798335      -0.05036999       0.13761336 </v>
    <v>      -0.05036999       0.18798335       0.13761336 </v>
    <v>       0.00000000       0.00000000       0.03949082 </v>
   </varray>
  </crystal>
  <varray name="positions" >
   <v>       0.50000095       0.50000095       0.23694490 </v>
   <v>       0.00000010       0.00000010       0.28477288 </v>
   <v>       0.50000095       0.50000095       0.33260134 </v>
   <v>       0.00000010       0.00000010       0.38042932 </v>
   <v>       0.50000095       0.50000095       0.42825779 </v>
   <v>       0.00000010       0.00000010       0.47608577 </v>
   <v>       0.50000095       0.50000095       0.52391423 </v>
   <v>       0.00000010       0.00000010       0.57174221 </v>
   <v>       0.50000095       0.50000095       0.61957068 </v>
   <v>       0.00000010       0.00000010       0.66739866 </v>
   <v>       0.50000095       0.50000095       0.71522712 </v>
   <v>       0.00000010       0.00000010       0.76305510 </v>
  </varray>
 </structure>
</modeling>
