 running on  128 total cores
 distrk:  each k-point on  128 cores,    1 groups
 distr:  one band on   16 cores,    8 groups
 vasp.6.2.1 16May21 (build Dec 23 2021 00:35:04) complex                        
  
 POSCAR found type information on POSCAR Na
 POSCAR found :  1 types and      12 ions
 scaLAPACK will be used
 LDA part: xc-table for Pade appr. of Perdew
 -----------------------------------------------------------------------------
|                                                                             |
|           W    W    AA    RRRRR   N    N  II  N    N   GGGG   !!!           |
|           W    W   A  A   R    R  NN   N  II  NN   N  G    G  !!!           |
|           W    W  A    A  R    R  N N  N  II  N N  N  G       !!!           |
|           W WW W  AAAAAA  RRRRR   N  N N  II  N  N N  G  GGG   !            |
|           WW  WW  A    A  R   R   N   NN  II  N   NN  G    G                |
|           W    W  A    A  R    R  N    N  II  N    N   GGGG   !!!           |
|                                                                             |
|     The requested file  could not be found or opened for reading            |
|     k-point information. Automatic k-point generation is used as a          |
|     fallback, which may lead to unwanted results.                           |
|                                                                             |
 -----------------------------------------------------------------------------

 POSCAR, INCAR and KPOINTS ok, starting setup
 FFT: planning ...
 WAVECAR not read
 entering main loop
       N       E                     dE             d eps       ncg     rms          rms(c)
DAV:   1    -0.579181354294E+00   -0.57918E+00   -0.20605E+03   128   0.351E+02
DAV:   2    -0.148050769442E+02   -0.14226E+02   -0.13178E+02   168   0.412E+01
DAV:   3    -0.155078742935E+02   -0.70280E+00   -0.69221E+00   184   0.104E+01
DAV:   4    -0.155400544076E+02   -0.32180E-01   -0.32168E-01   200   0.225E+00
DAV:   5    -0.155409806388E+02   -0.92623E-03   -0.92622E-03   208   0.447E-01    0.136E+00
RMM:   6    -0.151354872002E+02    0.40549E+00   -0.42285E-02   142   0.420E-01    0.852E-01
RMM:   7    -0.148810999278E+02    0.25439E+00   -0.17099E-01   166   0.789E-01    0.367E-01
RMM:   8    -0.148480639445E+02    0.33036E-01   -0.26851E-02   136   0.547E-01    0.198E-01
RMM:   9    -0.148186560168E+02    0.29408E-01   -0.26208E-02   150   0.409E-01    0.189E-01
RMM:  10    -0.147984431134E+02    0.20213E-01   -0.15573E-02   160   0.396E-01    0.119E-01
RMM:  11    -0.147884701743E+02    0.99729E-02   -0.74536E-03   147   0.238E-01    0.104E-01
RMM:  12    -0.148025487241E+02   -0.14079E-01   -0.29042E-02   185   0.344E-01    0.108E-01
RMM:  13    -0.148024526830E+02    0.96041E-04   -0.18322E-03   142   0.132E-01    0.445E-02
RMM:  14    -0.148069337143E+02   -0.44810E-02   -0.18953E-03   150   0.119E-01    0.226E-02
RMM:  15    -0.148078909189E+02   -0.95720E-03   -0.58709E-04   154   0.771E-02    0.951E-03
RMM:  16    -0.148080185559E+02   -0.12764E-03   -0.93955E-05   150   0.419E-02    0.395E-03
RMM:  17    -0.148080304946E+02   -0.11939E-04   -0.35582E-05   173   0.247E-02    0.193E-03
RMM:  18    -0.148080307495E+02   -0.25496E-06   -0.52682E-06   177   0.100E-02    0.146E-03
RMM:  19    -0.148080306907E+02    0.58817E-07   -0.99654E-07   156   0.424E-03    0.479E-04
RMM:  20    -0.148080306902E+02    0.58139E-09   -0.40674E-07   174   0.263E-03    0.149E-04
RMM:  21    -0.148080307270E+02   -0.36882E-07   -0.12719E-07   170   0.123E-03    0.497E-05
RMM:  22    -0.148080307369E+02   -0.98364E-08   -0.10134E-08   118   0.470E-04
   1 F= -.14808031E+02 E0= -.14770590E+02  d E =-.748810E-01
