unknown system                          
           1
     5.731094    1.535642    0.000000
     1.535642    5.731094    0.000000
   -25.322343  -25.322343   25.322343
   Na
    12
Direct configuration=     1
   0.50000095  0.50000095  0.23694490
   0.00000010  0.00000010  0.28477288
   0.50000095  0.50000095  0.33260134
   0.00000010  0.00000010  0.38042932
   0.50000095  0.50000095  0.42825779
   0.00000010  0.00000010  0.47608577
   0.50000095  0.50000095  0.52391423
   0.00000010  0.00000010  0.57174221
   0.50000095  0.50000095  0.61957068
   0.00000010  0.00000010  0.66739866
   0.50000095  0.50000095  0.71522712
   0.00000010  0.00000010  0.76305510
