 vasp.6.2.1 16May21 (build Dec 23 2021 00:35:04) complex                        
  
 executed on             LinuxIFC date 2023.03.08  12:29:35
 running on  128 total cores
 distrk:  each k-point on  128 cores,    1 groups
 distr:  one band on NCORE=  16 cores,    8 groups


--------------------------------------------------------------------------------------------------------


 INCAR:
   ENCUT = 400.000000
   KSPACING = 0.500000
   SIGMA = 0.100000
   EDIFF = 1.00e-08
   EDIFFG = -1.00e-02
   ALGO = Fast
   GGA = PE
   PREC = Normal
   IBRION = 2
   IDIPOL = 3
   ISIF = 2
   ISMEAR = 0
   ISPIN = 0
   ISYM = 0
   LMAXMIX = 6
   NELM = 150
   NPAR = 8
   NSW = 800
   NWRITE = 1
   DIPOL = 0.5162 0.5075 0.5081
   KGAMMA = .TRUE.
   LASPH = .TRUE.
   LCHARG = .FALSE.
   LDIPOL = .TRUE.
   LWAVE = .FALSE.
   LREAL = AUTO

 POTCAR:    PAW_PBE Na 08Apr2002                  
 POTCAR:    PAW_PBE O 08Apr2002                   
 POTCAR:    PAW_PBE Cl 06Sep2000                  
 POTCAR:    PAW_PBE Na 08Apr2002                  
  local pseudopotential read in
  partial core-charges read in
  partial kinetic energy density read in
  atomic valenz-charges read in
  non local Contribution for L=           0  read in
    real space projection operators read in
  non local Contribution for L=           0  read in
    real space projection operators read in
  non local Contribution for L=           1  read in
    real space projection operators read in
    PAW grid and wavefunctions read in
 
   number of l-projection  operators is LMAX  =           3
   number of lm-projection operators is LMMAX =           5
 
 POTCAR:    PAW_PBE O 08Apr2002                   
  local pseudopotential read in
  partial core-charges read in
  partial kinetic energy density read in
  kinetic energy density of atom read in
  atomic valenz-charges read in
  non local Contribution for L=           0  read in
    real space projection operators read in
  non local Contribution for L=           0  read in
    real space projection operators read in
  non local Contribution for L=           1  read in
    real space projection operators read in
  non local Contribution for L=           1  read in
    real space projection operators read in
    PAW grid and wavefunctions read in
 
   number of l-projection  operators is LMAX  =           4
   number of lm-projection operators is LMMAX =           8
 
 POTCAR:    PAW_PBE Cl 06Sep2000                  
  local pseudopotential read in
  partial core-charges read in
  partial kinetic energy density read in
  atomic valenz-charges read in
  non local Contribution for L=           0  read in
    real space projection operators read in
  non local Contribution for L=           0  read in
    real space projection operators read in
  non local Contribution for L=           1  read in
    real space projection operators read in
  non local Contribution for L=           1  read in
    real space projection operators read in
    PAW grid and wavefunctions read in
 
   number of l-projection  operators is LMAX  =           4
   number of lm-projection operators is LMMAX =           8
 
 Optimization of the real space projectors (new method)

 maximal supplied QI-value         = 17.01
 optimisation between [QCUT,QGAM] = [ 10.20, 20.41] = [ 29.16,116.64] Ry 
 Optimized for a Real-space Cutoff    1.19 Angstroem

   l    n(q)    QCUT    max X(q) W(low)/X(q) W(high)/X(q)  e(spline) 
   0      7    10.205    45.123    0.22E-03    0.82E-03    0.11E-06
   0      7    10.205    12.364    0.17E-03    0.61E-03    0.75E-07
   1      7    10.205     8.302    0.37E-03    0.15E-03    0.27E-07
 Optimization of the real space projectors (new method)

 maximal supplied QI-value         = 24.76
 optimisation between [QCUT,QGAM] = [ 10.15, 20.30] = [ 28.85,115.39] Ry 
 Optimized for a Real-space Cutoff    1.38 Angstroem

   l    n(q)    QCUT    max X(q) W(low)/X(q) W(high)/X(q)  e(spline) 
   0      8    10.150    20.381    0.22E-03    0.32E-03    0.29E-06
   0      8    10.150    15.268    0.23E-03    0.35E-03    0.30E-06
   1      8    10.150     5.964    0.46E-03    0.53E-03    0.21E-06
   1      8    10.150     5.382    0.38E-03    0.45E-03    0.19E-06
 Optimization of the real space projectors (new method)

 maximal supplied QI-value         = 19.84
 optimisation between [QCUT,QGAM] = [ 10.12, 20.44] = [ 28.68,116.96] Ry 
 Optimized for a Real-space Cutoff    1.23 Angstroem

   l    n(q)    QCUT    max X(q) W(low)/X(q) W(high)/X(q)  e(spline) 
   0      7    10.119   168.010    0.54E-04    0.25E-03    0.48E-07
   0      7    10.119   164.674    0.53E-04    0.25E-03    0.47E-07
   1      7    10.119    69.222    0.45E-03    0.63E-03    0.13E-06
   1      7    10.119    56.786    0.45E-03    0.62E-03    0.13E-06
  PAW_PBE Na 08Apr2002                  :
 energy of atom  1       EATOM=   -5.1581
 kinetic energy error for atom=    0.0001 (will be added to EATOM!!)
  PAW_PBE O 08Apr2002                   :
 energy of atom  2       EATOM= -432.3788
 kinetic energy error for atom=    0.1156 (will be added to EATOM!!)
  PAW_PBE Cl 06Sep2000                  :
 energy of atom  3       EATOM= -409.7259
 kinetic energy error for atom=    0.0089 (will be added to EATOM!!)
 
 
 POSCAR: Na  O Cl
  positions in cartesian coordinates
  No initial velocities read in
 exchange correlation table for  LEXCH =        8
   RHO(1)=    0.500       N(1)  =     2000
   RHO(2)=  100.500       N(2)  =     4000
 


--------------------------------------------------------------------------------------------------------


 ion  position               nearest neighbor table
   1  0.527  0.963  0.261- 109 2.23  61 3.15 171 3.15 165 3.15  62 3.15   6 3.15  77 3.15  82 3.15

   2  0.249  0.351  0.397- 109 2.23 110 2.23  62 3.15 172 3.15 166 3.15   6 3.15  77 3.15  63 3.15
                            82 3.15   8 3.15  78 3.15 179 3.15 175 3.15  84 3.15
   3  0.971  0.740  0.534- 110 2.23 111 2.23  63 3.15   8 3.15 169 3.15  78 3.15  64 3.15  84 3.15
                           163 3.15  10 3.15  79 3.15 180 3.15 176 3.15  86 3.15
   4  0.693  0.129  0.671- 111 2.23 112 2.23  64 3.15  10 3.15 170 3.15  79 3.15  86 3.15 164 3.15
                           177 3.15  12 3.15 173 3.15  80 3.15  88 3.15
   5  0.749  0.851  0.261- 113 2.23  73 3.15 175 3.15 171 3.15  74 3.15  13 3.15   6 3.15  91 3.15

   6  0.499  0.101  0.329- 109 2.23 113 2.23 171 3.15  62 3.15  74 3.15   2 3.15 172 3.15   7 3.15
                             1 3.15   5 3.15  82 3.15  91 3.15 179 3.15
   7  0.471  0.240  0.397- 113 2.23 114 2.23  74 3.15 176 3.15 172 3.15  13 3.15   6 3.15  75 3.15
                            91 3.15  14 3.15   8 3.15 147 3.15 179 3.15  94 3.15
   8  0.221  0.490  0.466- 110 2.23 114 2.23 172 3.15  63 3.15  75 3.15   3 3.15 169 3.15   9 3.15
                             2 3.15 179 3.15   7 3.15  84 3.15  94 3.15 180 3.15
   9  0.193  0.629  0.534- 114 2.23 115 2.23  75 3.15  14 3.15 173 3.15   8 3.15  76 3.15  94 3.15
                           169 3.15  15 3.15  10 3.15 148 3.15 180 3.15  97 3.15
  10  0.943  0.879  0.603- 111 2.23 115 2.23  64 3.15  76 3.15   4 3.15 170 3.15  11 3.15 177 3.15
                           169 3.15   3 3.15 180 3.15   9 3.15  86 3.15  97 3.15
  11  0.916  0.018  0.671- 115 2.23 116 2.23  76 3.15  15 3.15 174 3.15  10 3.15  97 3.15 145 3.15
                           170 3.15  16 3.15 177 3.15  12 3.15 100 3.15
  12  0.666  0.268  0.739- 112 2.23 116 2.23 178 3.15 170 3.15   4 3.15 177 3.15  11 3.15  88 3.15
                           100 3.15
  13  0.721  0.990  0.329- 113 2.23 133 2.23 175 3.15  74 3.15  84 3.15   7 3.15 176 3.15  83 3.15
                             5 3.15  81 3.15  91 3.15  17 3.15 147 3.15
  14  0.443  0.379  0.466- 114 2.23 134 2.23 176 3.15  75 3.15  86 3.15   9 3.15 173 3.15  85 3.15
                             7 3.15 147 3.15  83 3.15  94 3.15  18 3.15 148 3.15
  15  0.166  0.768  0.603- 115 2.23 135 2.23  76 3.15  88 3.15  11 3.15 174 3.15  87 3.15 145 3.15
                           173 3.15   9 3.15 148 3.15  85 3.15  97 3.15  19 3.15
  16  0.888  0.157  0.739- 116 2.23 136 2.23 146 3.15 174 3.15  11 3.15 145 3.15  87 3.15 100 3.15
                            20 3.15
  17  0.693  0.129  0.261- 133 2.23 101 3.15 151 3.15  83 3.15 147 3.15  90 3.15  13 3.15  81 3.15

  18  0.416  0.518  0.397- 141 2.23 134 2.23 103 3.15  22 3.15 102 3.15 152 3.15 151 3.15  85 3.15
                           101 3.15 148 3.15 147 3.15  93 3.15  14 3.15  83 3.15
  19  0.138  0.907  0.534- 142 2.23 135 2.23 105 3.15  25 3.15 149 3.15 104 3.15 145 3.15 152 3.15
                           103 3.15  87 3.15 148 3.15  96 3.15  15 3.15  85 3.15
  20  0.860  0.296  0.671- 143 2.23 136 2.23 107 3.15  28 3.15 150 3.15 106 3.15 146 3.15 105 3.15
                           149 3.15  99 3.15 145 3.15  16 3.15  87 3.15
  21  0.638  0.407  0.261- 117 2.23  23 3.15 155 3.15 151 3.15  26 3.15  34 3.15  22 3.15  51 3.15

  22  0.388  0.657  0.329- 141 2.23 117 2.23 151 3.15  18 3.15  26 3.15 103 3.15 152 3.15  24 3.15
                           101 3.15  21 3.15  35 3.15  51 3.15 161 3.15
  23  0.916  0.018  0.261- 137 2.23  21 3.15 155 3.15  92 3.15 151 3.15 102 3.15  90 3.15  89 3.15

  24  0.360  0.796  0.397- 117 2.23 118 2.23  26 3.15 156 3.15 152 3.15  34 3.15  22 3.15  29 3.15
                            51 3.15  37 3.15  25 3.15 167 3.15 161 3.15  54 3.15
  25  0.110  0.046  0.466- 142 2.23 118 2.23 152 3.15  19 3.15  29 3.15 105 3.15 149 3.15  27 3.15
                           103 3.15 161 3.15  24 3.15  38 3.15  54 3.15 162 3.15
  26  0.638  0.407  0.397- 117 2.23 138 2.23  24 3.15  34 3.15  22 3.15 156 3.15 155 3.15  95 3.15
                            21 3.15 152 3.15 151 3.15 104 3.15  93 3.15  92 3.15
  27  0.082  0.185  0.534- 118 2.23 119 2.23  29 3.15  37 3.15 153 3.15  25 3.15  32 3.15  54 3.15
                           149 3.15  40 3.15  28 3.15 168 3.15 162 3.15  57 3.15
  28  0.832  0.435  0.603- 143 2.23 119 2.23  20 3.15  32 3.15 107 3.15 150 3.15  30 3.15 159 3.15
                           149 3.15 105 3.15 162 3.15  27 3.15  41 3.15  57 3.15
  29  0.360  0.796  0.534- 118 2.23 139 2.23  27 3.15  37 3.15 153 3.15  25 3.15 149 3.15 156 3.15
                            24 3.15  98 3.15 152 3.15 106 3.15  96 3.15  95 3.15
  30  0.805  0.574  0.671- 119 2.23 120 2.23  32 3.15  40 3.15 154 3.15  28 3.15  57 3.15 157 3.15
                           150 3.15  43 3.15 159 3.15  31 3.15  60 3.15
  31  0.555  0.824  0.739- 144 2.23 120 2.23 160 3.15 150 3.15 107 3.15 159 3.15  30 3.15  44 3.15
                            60 3.15
  32  0.082  0.185  0.671- 119 2.23 140 2.23  30 3.15  40 3.15 154 3.15  28 3.15 150 3.15  27 3.15
                           153 3.15 108 3.15 149 3.15  99 3.15  98 3.15
  33  0.860  0.296  0.261- 121 2.23  35 3.15 161 3.15 155 3.15  38 3.15  50 3.15  34 3.15  45 3.15

  34  0.610  0.546  0.329- 117 2.23 121 2.23 155 3.15  26 3.15  38 3.15  24 3.15 156 3.15  36 3.15
                            21 3.15  33 3.15  51 3.15  45 3.15 167 3.15
  35  0.138  0.907  0.261- 141 2.23  33 3.15 161 3.15 103 3.15 155 3.15  22 3.15 102 3.15 101 3.15

  36  0.582  0.685  0.397- 121 2.23 122 2.23  38 3.15 162 3.15 156 3.15  50 3.15  34 3.15  41 3.15
                            45 3.15  53 3.15  37 3.15 165 3.15 167 3.15  46 3.15
  37  0.332  0.935  0.466- 118 2.23 122 2.23 156 3.15  29 3.15  41 3.15  27 3.15 153 3.15  39 3.15
                            24 3.15 167 3.15  36 3.15  54 3.15  46 3.15 168 3.15
  38  0.860  0.296  0.397- 121 2.23 142 2.23  36 3.15  50 3.15  34 3.15 162 3.15 161 3.15 105 3.15
                            33 3.15 156 3.15 155 3.15  25 3.15 104 3.15 103 3.15
  39  0.305  0.074  0.534- 122 2.23 123 2.23  41 3.15  53 3.15 159 3.15  37 3.15  44 3.15  46 3.15
                           153 3.15  56 3.15  40 3.15 166 3.15 168 3.15  47 3.15
  40  0.055  0.324  0.603- 119 2.23 123 2.23  32 3.15  44 3.15  30 3.15 154 3.15  42 3.15 157 3.15
                           153 3.15  27 3.15 168 3.15  39 3.15  57 3.15  47 3.15
  41  0.582  0.685  0.534- 122 2.23 143 2.23  39 3.15  53 3.15 159 3.15  37 3.15 153 3.15 162 3.15
                            36 3.15 107 3.15 156 3.15  28 3.15 106 3.15 105 3.15
  42  0.027  0.463  0.671- 123 2.23 124 2.23  44 3.15  56 3.15 160 3.15  40 3.15  47 3.15 163 3.15
                           154 3.15  59 3.15 157 3.15  43 3.15  48 3.15
  43  0.777  0.713  0.739- 120 2.23 124 2.23 158 3.15 154 3.15  30 3.15 157 3.15  42 3.15  60 3.15
                            48 3.15
  44  0.305  0.074  0.671- 123 2.23 144 2.23  42 3.15  56 3.15 160 3.15  40 3.15 154 3.15  39 3.15
                           159 3.15  31 3.15 153 3.15 108 3.15 107 3.15
  45  0.582  0.685  0.261- 121 2.23  65 3.15 165 3.15  36 3.15 167 3.15  50 3.15  34 3.15  33 3.15

  46  0.305  0.074  0.397- 129 2.23 122 2.23  67 3.15  77 3.15  66 3.15 166 3.15 165 3.15  39 3.15
                            65 3.15 168 3.15 167 3.15  53 3.15  37 3.15  36 3.15
  47  0.027  0.463  0.534- 130 2.23 123 2.23  69 3.15  78 3.15 163 3.15  68 3.15 157 3.15 166 3.15
                            67 3.15  42 3.15 168 3.15  56 3.15  40 3.15  39 3.15
  48  0.749  0.851  0.671- 131 2.23 124 2.23  71 3.15  79 3.15 164 3.15  70 3.15 158 3.15  69 3.15
                           163 3.15  59 3.15 157 3.15  43 3.15  42 3.15
  49  0.082  0.185  0.261- 125 2.23  51 3.15 167 3.15 161 3.15  54 3.15  66 3.15  50 3.15  61 3.15

  50  0.832  0.435  0.329- 121 2.23 125 2.23 161 3.15  38 3.15  54 3.15  36 3.15 162 3.15  52 3.15
                            33 3.15  49 3.15  45 3.15  61 3.15 165 3.15
  51  0.360  0.796  0.261- 117 2.23  49 3.15 167 3.15  24 3.15 161 3.15  34 3.15  22 3.15  21 3.15

  52  0.805  0.574  0.397- 125 2.23 126 2.23  54 3.15 168 3.15 162 3.15  66 3.15  50 3.15  57 3.15
                            61 3.15  68 3.15  53 3.15 171 3.15 165 3.15  62 3.15
  53  0.555  0.824  0.466- 122 2.23 126 2.23 162 3.15  41 3.15  57 3.15  39 3.15 159 3.15  55 3.15
                            36 3.15 165 3.15  52 3.15  46 3.15  62 3.15 166 3.15
  54  0.082  0.185  0.397- 125 2.23 118 2.23  52 3.15  66 3.15  50 3.15 168 3.15 167 3.15  27 3.15
                            49 3.15 162 3.15 161 3.15  37 3.15  25 3.15  24 3.15
  55  0.527  0.963  0.534- 126 2.23 127 2.23  57 3.15  68 3.15 157 3.15  53 3.15  60 3.15  62 3.15
                           159 3.15  70 3.15  56 3.15 172 3.15 166 3.15  63 3.15
  56  0.277  0.213  0.603- 123 2.23 127 2.23  44 3.15  60 3.15  42 3.15 160 3.15  58 3.15 163 3.15
                           159 3.15  39 3.15 166 3.15  55 3.15  47 3.15  63 3.15
  57  0.805  0.574  0.534- 126 2.23 119 2.23  55 3.15  68 3.15 157 3.15  53 3.15 159 3.15 168 3.15
                            52 3.15  30 3.15 162 3.15  40 3.15  28 3.15  27 3.15
  58  0.249  0.351  0.671- 127 2.23 128 2.23  60 3.15  70 3.15 158 3.15  56 3.15  63 3.15 160 3.15
                           169 3.15  72 3.15 163 3.15  59 3.15  64 3.15
  59  0.999  0.601  0.739- 124 2.23 128 2.23 164 3.15 160 3.15  42 3.15 163 3.15  58 3.15  48 3.15
                            64 3.15
  60  0.527  0.963  0.671- 127 2.23 120 2.23  58 3.15  70 3.15 158 3.15  56 3.15 160 3.15  55 3.15
                           157 3.15  43 3.15 159 3.15  31 3.15  30 3.15
  61  0.805  0.574  0.261- 125 2.23   1 3.15 171 3.15  52 3.15 165 3.15  66 3.15  50 3.15  49 3.15

  62  0.527  0.963  0.397- 109 2.23 126 2.23   2 3.15   6 3.15  77 3.15 172 3.15 171 3.15  55 3.15
                             1 3.15 166 3.15 165 3.15  68 3.15  53 3.15  52 3.15
  63  0.249  0.351  0.534- 110 2.23 127 2.23   3 3.15   8 3.15 169 3.15  78 3.15 163 3.15 172 3.15
                             2 3.15  58 3.15 166 3.15  70 3.15  56 3.15  55 3.15
  64  0.971  0.740  0.671- 111 2.23 128 2.23   4 3.15  10 3.15 170 3.15  79 3.15 164 3.15   3 3.15
                           169 3.15  72 3.15 163 3.15  59 3.15  58 3.15
  65  0.305  0.074  0.261- 129 2.23  45 3.15 165 3.15 167 3.15  46 3.15  77 3.15  66 3.15  73 3.15

  66  0.055  0.324  0.329- 125 2.23 129 2.23 167 3.15  54 3.15  46 3.15  52 3.15 168 3.15  67 3.15
                            49 3.15  65 3.15  61 3.15  73 3.15 171 3.15
  67  0.027  0.463  0.397- 129 2.23 130 2.23  46 3.15 166 3.15 168 3.15  77 3.15  66 3.15  47 3.15
                            73 3.15  78 3.15  68 3.15 175 3.15 171 3.15  74 3.15
  68  0.777  0.713  0.466- 126 2.23 130 2.23 168 3.15  57 3.15  47 3.15  55 3.15 157 3.15  69 3.15
                            52 3.15 171 3.15  67 3.15  62 3.15  74 3.15 172 3.15
  69  0.749  0.851  0.534- 130 2.23 131 2.23  47 3.15  78 3.15 163 3.15  68 3.15  48 3.15  74 3.15
                           157 3.15  79 3.15  70 3.15 176 3.15 172 3.15  75 3.15
  70  0.499  0.101  0.603- 127 2.23 131 2.23  60 3.15  48 3.15  58 3.15 158 3.15  71 3.15 169 3.15
                           157 3.15  55 3.15 172 3.15  69 3.15  63 3.15  75 3.15
  71  0.471  0.240  0.671- 131 2.23 132 2.23  48 3.15  79 3.15 164 3.15  70 3.15  75 3.15 158 3.15
                           173 3.15  80 3.15 169 3.15  72 3.15  76 3.15
  72  0.221  0.490  0.739- 128 2.23 132 2.23 170 3.15 158 3.15  58 3.15 169 3.15  71 3.15  64 3.15
                            76 3.15
  73  0.027  0.463  0.261- 129 2.23   5 3.15 175 3.15  67 3.15 171 3.15  77 3.15  66 3.15  65 3.15

  74  0.749  0.851  0.397- 113 2.23 130 2.23   7 3.15  13 3.15   6 3.15 176 3.15 175 3.15  69 3.15
                             5 3.15 172 3.15 171 3.15  78 3.15  68 3.15  67 3.15
  75  0.471  0.240  0.534- 114 2.23 131 2.23   9 3.15  14 3.15 173 3.15   8 3.15 169 3.15 176 3.15
                             7 3.15  71 3.15 172 3.15  79 3.15  70 3.15  69 3.15
  76  0.193  0.629  0.671- 115 2.23 132 2.23  11 3.15  15 3.15 174 3.15  10 3.15 170 3.15   9 3.15
                           173 3.15  80 3.15 169 3.15  72 3.15  71 3.15
  77  0.277  0.213  0.329- 129 2.23 109 2.23 165 3.15  46 3.15  62 3.15  67 3.15 166 3.15   2 3.15
                            65 3.15   1 3.15  73 3.15  82 3.15 175 3.15
  78  0.999  0.601  0.466- 130 2.23 110 2.23 166 3.15  47 3.15  63 3.15  69 3.15 163 3.15   3 3.15
                            67 3.15 175 3.15   2 3.15  74 3.15  84 3.15 176 3.15
  79  0.721  0.990  0.603- 131 2.23 111 2.23  48 3.15  64 3.15  71 3.15 164 3.15   4 3.15 173 3.15
                           163 3.15  69 3.15 176 3.15   3 3.15  75 3.15  86 3.15
  80  0.443  0.379  0.739- 132 2.23 112 2.23 174 3.15 164 3.15  71 3.15 173 3.15   4 3.15  76 3.15
                            88 3.15
  81  0.971  0.740  0.261- 133 2.23  82 3.15 179 3.15 175 3.15  84 3.15  90 3.15  13 3.15  17 3.15

  82  0.249  0.351  0.261- 109 2.23  81 3.15 179 3.15   2 3.15 175 3.15   6 3.15  77 3.15   1 3.15

  83  0.693  0.129  0.397- 133 2.23 134 2.23  84 3.15 180 3.15 176 3.15  90 3.15  13 3.15  86 3.15
                            17 3.15  93 3.15  14 3.15 151 3.15 147 3.15  18 3.15
  84  0.971  0.740  0.397- 133 2.23 110 2.23  83 3.15  90 3.15  13 3.15 180 3.15 179 3.15   3 3.15
                            81 3.15 176 3.15 175 3.15   8 3.15  78 3.15   2 3.15
  85  0.416  0.518  0.534- 134 2.23 135 2.23  86 3.15  93 3.15 177 3.15  14 3.15  88 3.15  18 3.15
                           173 3.15  96 3.15  15 3.15 152 3.15 148 3.15  19 3.15
  86  0.693  0.129  0.534- 134 2.23 111 2.23  85 3.15  93 3.15 177 3.15  14 3.15 173 3.15 180 3.15
                            83 3.15   4 3.15 176 3.15  10 3.15  79 3.15   3 3.15
  87  0.138  0.907  0.671- 135 2.23 136 2.23  88 3.15  96 3.15 178 3.15  15 3.15  19 3.15 149 3.15
                           174 3.15  99 3.15 145 3.15  16 3.15  20 3.15
  88  0.416  0.518  0.671- 135 2.23 112 2.23  87 3.15  96 3.15 178 3.15  15 3.15 174 3.15  85 3.15
                           177 3.15  12 3.15 173 3.15  80 3.15   4 3.15
  89  0.193  0.629  0.261- 137 2.23  91 3.15 147 3.15 179 3.15  94 3.15 102 3.15  90 3.15  23 3.15

  90  0.943  0.879  0.329- 133 2.23 137 2.23 179 3.15  84 3.15  94 3.15  83 3.15 180 3.15  92 3.15
                            81 3.15  89 3.15  17 3.15  23 3.15 151 3.15
  91  0.471  0.240  0.261- 113 2.23  89 3.15 147 3.15   7 3.15 179 3.15  13 3.15   6 3.15   5 3.15

  92  0.916  0.018  0.397- 137 2.23 138 2.23  94 3.15 148 3.15 180 3.15 102 3.15  90 3.15  97 3.15
                            23 3.15 104 3.15  93 3.15 155 3.15 151 3.15  26 3.15
  93  0.666  0.268  0.466- 134 2.23 138 2.23 180 3.15  86 3.15  97 3.15  85 3.15 177 3.15  95 3.15
                            83 3.15 151 3.15  92 3.15  18 3.15  26 3.15 152 3.15
  94  0.193  0.629  0.397- 137 2.23 114 2.23  92 3.15 102 3.15  90 3.15 148 3.15 147 3.15   9 3.15
                            89 3.15 180 3.15 179 3.15  14 3.15   8 3.15   7 3.15
  95  0.638  0.407  0.534- 138 2.23 139 2.23  97 3.15 104 3.15 145 3.15  93 3.15 100 3.15  26 3.15
                           177 3.15 106 3.15  96 3.15 156 3.15 152 3.15  29 3.15
  96  0.388  0.657  0.603- 135 2.23 139 2.23  88 3.15 100 3.15  87 3.15 178 3.15  98 3.15 149 3.15
                           177 3.15  85 3.15 152 3.15  95 3.15  19 3.15  29 3.15
  97  0.916  0.018  0.534- 138 2.23 115 2.23  95 3.15 104 3.15 145 3.15  93 3.15 177 3.15 148 3.15
                            92 3.15  11 3.15 180 3.15  15 3.15  10 3.15   9 3.15
  98  0.360  0.796  0.671- 139 2.23 140 2.23 100 3.15 106 3.15 146 3.15  96 3.15  29 3.15 178 3.15
                           153 3.15 108 3.15 149 3.15  99 3.15  32 3.15
  99  0.110  0.046  0.739- 136 2.23 140 2.23 150 3.15 178 3.15  87 3.15 149 3.15  98 3.15  20 3.15
                            32 3.15
 100  0.638  0.407  0.671- 139 2.23 116 2.23  98 3.15 106 3.15 146 3.15  96 3.15 178 3.15  95 3.15
                           145 3.15  16 3.15 177 3.15  12 3.15  11 3.15
 101  0.416  0.518  0.261- 141 2.23  17 3.15 151 3.15 147 3.15  18 3.15  22 3.15 102 3.15  35 3.15

 102  0.166  0.768  0.329- 137 2.23 141 2.23 147 3.15  94 3.15  18 3.15  92 3.15 148 3.15 103 3.15
                            89 3.15 101 3.15  23 3.15  35 3.15 155 3.15
 103  0.138  0.907  0.397- 141 2.23 142 2.23  18 3.15 152 3.15 148 3.15  22 3.15 102 3.15  19 3.15
                            35 3.15  25 3.15 104 3.15 161 3.15 155 3.15  38 3.15
 104  0.888  0.157  0.466- 138 2.23 142 2.23 148 3.15  97 3.15  19 3.15  95 3.15 145 3.15 105 3.15
                            92 3.15 155 3.15 103 3.15  26 3.15  38 3.15 156 3.15
 105  0.860  0.296  0.534- 142 2.23 143 2.23  19 3.15  25 3.15 149 3.15 104 3.15  20 3.15  38 3.15
                           145 3.15  28 3.15 106 3.15 162 3.15 156 3.15  41 3.15
 106  0.610  0.546  0.603- 139 2.23 143 2.23 100 3.15  20 3.15  98 3.15 146 3.15 107 3.15 153 3.15
                           145 3.15  95 3.15 156 3.15 105 3.15  29 3.15  41 3.15
 107  0.582  0.685  0.671- 143 2.23 144 2.23  20 3.15  28 3.15 150 3.15 106 3.15  41 3.15 159 3.15
                           146 3.15  31 3.15 153 3.15 108 3.15  44 3.15
 108  0.332  0.935  0.739- 140 2.23 144 2.23 154 3.15 146 3.15  98 3.15 153 3.15 107 3.15  32 3.15
                            44 3.15
 109  0.388  0.157  0.329-  62 2.23   2 2.23   6 2.23  77 2.23   1 2.23  82 2.23
 110  0.110  0.546  0.466-  63 2.23   3 2.23   8 2.23  78 2.23   2 2.23  84 2.23
 111  0.832  0.935  0.603-  64 2.23   4 2.23  10 2.23  79 2.23   3 2.23  86 2.23
 112  0.555  0.324  0.739-  12 2.23  80 2.23   4 2.23  88 2.23
 113  0.610  0.046  0.329-  74 2.23   7 2.23  13 2.23   6 2.23   5 2.23  91 2.23
 114  0.332  0.435  0.466-  75 2.23   9 2.23  14 2.23   8 2.23   7 2.23  94 2.23
 115  0.055  0.824  0.603-  76 2.23  11 2.23  15 2.23  10 2.23   9 2.23  97 2.23
 116  0.777  0.213  0.739-  16 2.23  12 2.23  11 2.23 100 2.23
 117  0.499  0.601  0.329-  26 2.23  24 2.23  34 2.23  22 2.23  21 2.23  51 2.23
 118  0.221  0.990  0.466-  29 2.23  27 2.23  37 2.23  25 2.23  24 2.23  54 2.23
 119  0.943  0.379  0.603-  32 2.23  30 2.23  40 2.23  28 2.23  27 2.23  57 2.23
 120  0.666  0.768  0.739-  43 2.23  31 2.23  30 2.23  60 2.23
 121  0.721  0.490  0.329-  38 2.23  36 2.23  50 2.23  34 2.23  33 2.23  45 2.23
 122  0.443  0.879  0.466-  41 2.23  39 2.23  53 2.23  37 2.23  36 2.23  46 2.23
 123  0.166  0.268  0.603-  44 2.23  42 2.23  56 2.23  40 2.23  39 2.23  47 2.23
 124  0.888  0.657  0.739-  59 2.23  43 2.23  42 2.23  48 2.23
 125  0.943  0.379  0.329-  54 2.23  52 2.23  66 2.23  50 2.23  49 2.23  61 2.23
 126  0.666  0.768  0.466-  57 2.23  55 2.23  68 2.23  53 2.23  52 2.23  62 2.23
 127  0.388  0.157  0.603-  60 2.23  58 2.23  70 2.23  56 2.23  55 2.23  63 2.23
 128  0.110  0.546  0.739-  72 2.23  59 2.23  58 2.23  64 2.23
 129  0.166  0.268  0.329-  46 2.23  67 2.23  77 2.23  66 2.23  65 2.23  73 2.23
 130  0.888  0.657  0.466-  47 2.23  69 2.23  78 2.23  68 2.23  67 2.23  74 2.23
 131  0.610  0.046  0.603-  48 2.23  71 2.23  79 2.23  70 2.23  69 2.23  75 2.23
 132  0.332  0.435  0.739-  80 2.23  72 2.23  71 2.23  76 2.23
 133  0.832  0.935  0.329-  84 2.23  83 2.23  90 2.23  13 2.23  81 2.23  17 2.23
 134  0.555  0.324  0.466-  86 2.23  85 2.23  93 2.23  14 2.23  83 2.23  18 2.23
 135  0.277  0.713  0.603-  88 2.23  87 2.23  96 2.23  15 2.23  85 2.23  19 2.23
 136  0.999  0.101  0.739-  99 2.23  16 2.23  87 2.23  20 2.23
 137  0.055  0.824  0.329-  94 2.23  92 2.23 102 2.23  90 2.23  89 2.23  23 2.23
 138  0.777  0.213  0.466-  97 2.23  95 2.23 104 2.23  93 2.23  92 2.23  26 2.23
 139  0.499  0.601  0.603- 100 2.23  98 2.23 106 2.23  96 2.23  95 2.23  29 2.23
 140  0.221  0.990  0.739- 108 2.23  99 2.23  98 2.23  32 2.23
 141  0.277  0.713  0.329-  18 2.23 103 2.23  22 2.23 102 2.23 101 2.23  35 2.23
 142  0.999  0.101  0.466-  19 2.23 105 2.23  25 2.23 104 2.23 103 2.23  38 2.23
 143  0.721  0.490  0.603-  20 2.23 107 2.23  28 2.23 106 2.23 105 2.23  41 2.23
 144  0.443  0.879  0.739-  31 2.23 108 2.23 107 2.23  44 2.23
 145  0.888  0.157  0.603-  97 3.15  19 3.15 104 3.15  95 3.15  15 3.15  11 3.15 105 3.15 106 3.15
                            87 3.15  16 3.15 100 3.15  20 3.15
 146  0.610  0.546  0.739- 100 3.15  20 3.15 106 3.15  98 3.15  16 3.15 107 3.15 108 3.15
 147  0.443  0.379  0.329- 102 3.15  89 3.15 101 3.15  91 3.15  94 3.15  17 3.15  18 3.15  14 3.15
                             7 3.15  83 3.15  13 3.15
 148  0.166  0.768  0.466- 104 3.15  92 3.15 103 3.15 102 3.15  94 3.15  97 3.15  18 3.15  19 3.15
                            15 3.15   9 3.15  85 3.15  14 3.15
 149  0.110  0.046  0.603-  19 3.15  29 3.15  25 3.15 105 3.15  96 3.15  87 3.15  27 3.15  28 3.15
                            98 3.15  99 3.15  20 3.15  32 3.15
 150  0.832  0.435  0.739-  20 3.15  32 3.15  28 3.15 107 3.15  99 3.15  30 3.15  31 3.15
 151  0.666  0.268  0.329-  22 3.15 101 3.15  21 3.15  17 3.15  18 3.15  23 3.15  26 3.15  93 3.15
                            83 3.15  92 3.15  90 3.15
 152  0.388  0.657  0.466-  25 3.15 103 3.15  24 3.15  22 3.15  18 3.15  19 3.15  26 3.15  29 3.15
                            96 3.15  85 3.15  95 3.15  93 3.15
 153  0.332  0.935  0.603-  29 3.15  41 3.15  37 3.15  27 3.15 106 3.15  39 3.15  98 3.15  40 3.15
                           107 3.15 108 3.15  32 3.15  44 3.15
 154  0.055  0.324  0.739-  32 3.15  44 3.15  40 3.15  30 3.15 108 3.15  42 3.15  43 3.15
 155  0.888  0.157  0.329-  34 3.15  21 3.15  33 3.15  23 3.15  26 3.15  35 3.15  38 3.15 104 3.15
                            92 3.15 103 3.15 102 3.15
 156  0.610  0.546  0.466-  37 3.15  24 3.15  36 3.15  34 3.15  26 3.15  29 3.15  38 3.15  41 3.15
                           106 3.15  95 3.15 105 3.15 104 3.15
 157  0.777  0.713  0.603-  57 3.15  47 3.15  68 3.15  55 3.15  40 3.15  69 3.15  30 3.15  70 3.15
                            42 3.15  43 3.15  60 3.15  48 3.15
 158  0.499  0.101  0.739-  60 3.15  48 3.15  70 3.15  58 3.15  43 3.15  71 3.15  72 3.15
 159  0.555  0.824  0.603-  41 3.15  57 3.15  53 3.15  39 3.15  28 3.15 107 3.15  55 3.15  56 3.15
                            30 3.15  31 3.15  44 3.15  60 3.15
 160  0.277  0.213  0.739-  44 3.15  60 3.15  56 3.15  42 3.15  31 3.15  58 3.15  59 3.15
 161  0.110  0.046  0.329-  50 3.15  33 3.15  49 3.15  35 3.15  38 3.15  51 3.15  54 3.15  25 3.15
                           103 3.15  24 3.15  22 3.15
 162  0.832  0.435  0.466-  53 3.15  36 3.15  52 3.15  50 3.15  38 3.15  41 3.15  54 3.15  57 3.15
                            28 3.15 105 3.15  27 3.15  25 3.15
 163  0.999  0.601  0.603-  47 3.15  63 3.15  78 3.15  69 3.15  56 3.15  42 3.15   3 3.15  79 3.15
                            58 3.15  59 3.15  48 3.15  64 3.15
 164  0.721  0.990  0.739-  48 3.15  64 3.15  79 3.15  71 3.15  59 3.15   4 3.15  80 3.15
 165  0.555  0.824  0.329-  77 3.15  65 3.15   1 3.15  45 3.15  46 3.15  61 3.15  62 3.15  53 3.15
                            36 3.15  52 3.15  50 3.15
 166  0.277  0.213  0.466-  78 3.15  67 3.15   2 3.15  77 3.15  46 3.15  47 3.15  62 3.15  63 3.15
                            56 3.15  39 3.15  55 3.15  53 3.15
 167  0.332  0.935  0.329-  66 3.15  49 3.15  65 3.15  51 3.15  54 3.15  45 3.15  46 3.15  37 3.15
                            24 3.15  36 3.15  34 3.15
 168  0.055  0.324  0.466-  68 3.15  52 3.15  67 3.15  66 3.15  54 3.15  57 3.15  46 3.15  47 3.15
                            40 3.15  27 3.15  39 3.15  37 3.15
 169  0.221  0.490  0.603-  63 3.15  75 3.15   8 3.15   3 3.15  70 3.15   9 3.15  58 3.15  10 3.15
                            71 3.15  72 3.15  64 3.15  76 3.15
 170  0.943  0.879  0.739-  64 3.15  76 3.15  10 3.15   4 3.15  72 3.15  11 3.15  12 3.15
 171  0.777  0.713  0.329-   6 3.15   1 3.15   5 3.15  61 3.15  62 3.15  73 3.15  74 3.15  68 3.15
                            52 3.15  67 3.15  66 3.15
 172  0.499  0.101  0.466-   8 3.15   2 3.15   7 3.15   6 3.15  62 3.15  63 3.15  74 3.15  75 3.15
                            70 3.15  55 3.15  69 3.15  68 3.15
 173  0.443  0.379  0.603-  75 3.15  86 3.15  14 3.15   9 3.15  79 3.15  71 3.15  85 3.15  15 3.15
                             4 3.15  80 3.15  76 3.15  88 3.15
 174  0.166  0.768  0.739-  76 3.15  88 3.15  15 3.15  11 3.15  80 3.15  87 3.15  16 3.15
 175  0.999  0.601  0.329-  13 3.15   5 3.15  81 3.15  73 3.15  74 3.15  82 3.15  84 3.15  78 3.15
                            67 3.15   2 3.15  77 3.15
 176  0.721  0.990  0.466-  14 3.15   7 3.15  83 3.15  13 3.15  74 3.15  75 3.15  84 3.15  86 3.15
                            79 3.15  69 3.15   3 3.15  78 3.15
 177  0.666  0.268  0.603-  86 3.15  97 3.15  93 3.15  85 3.15  10 3.15  95 3.15   4 3.15  96 3.15
                            11 3.15  12 3.15  88 3.15 100 3.15
 178  0.388  0.657  0.739-  88 3.15 100 3.15  96 3.15  87 3.15  12 3.15  98 3.15  99 3.15
 179  0.221  0.490  0.329-  90 3.15  81 3.15  89 3.15  82 3.15  84 3.15  91 3.15  94 3.15   8 3.15
                             2 3.15   7 3.15   6 3.15
 180  0.943  0.879  0.466-  93 3.15  83 3.15  92 3.15  90 3.15  84 3.15  86 3.15  94 3.15  97 3.15
                            10 3.15   3 3.15   9 3.15   8 3.15
 

IMPORTANT INFORMATION: All symmetrisations will be switched off!
NOSYMM: (Re-)initialisation of all symmetry stuff for point group C_1.


----------------------------------------------------------------------------------------

                                     Primitive cell                                     

  volume of cell :    5824.2202

  direct lattice vectors                    reciprocal lattice vectors
   -17.605519200-26.520276080  0.000000000    -0.097571392  0.027065895  0.000000000
    -6.844455720-24.673969480  0.000000000     0.104872475 -0.069619727  0.000000000
     0.000000000  0.000000000 23.031449165     0.000000000  0.000000000  0.043418892

  length of vectors
    31.832049096 25.605689680 23.031449165     0.101255811  0.125877489  0.043418892

  position of ions in fractional coordinates (direct lattice)
     0.526764463  0.962529786  0.260513351
     0.248986685  0.351418674  0.397362860
     0.971208908  0.740307563  0.534212370
     0.693431130  0.129196452  0.671061879
     0.748986685  0.851418675  0.260513351
     0.498986639  0.101418725  0.328938121
     0.471208908  0.240307563  0.397362860
     0.221208862  0.490307614  0.465787630
     0.193431130  0.629196452  0.534212370
     0.943431084  0.879196502  0.602637140
     0.915653352  0.018085341  0.671061879
     0.665653306  0.268085391  0.739486649
     0.721208862  0.990307614  0.328938121
     0.443431084  0.379196503  0.465787630
     0.165653306  0.768085391  0.602637140
     0.887875528  0.156974280  0.739486649
     0.693430980  0.129196662  0.260513351
     0.415653202  0.518085551  0.397362860
     0.137875424  0.906974440  0.534212370
     0.860097647  0.295863329  0.671061879
     0.637875574  0.406974230  0.260513351
     0.387875528  0.656974280  0.328938121
     0.915653202  0.018085551  0.260513351
     0.360097796  0.795863119  0.397362860
     0.110097751  0.045863169  0.465787630
     0.637875424  0.406974440  0.397362860
     0.082320019  0.184752008  0.534212370
     0.832319973  0.434752058  0.602637140
     0.360097647  0.795863329  0.534212370
     0.804542241  0.573640896  0.671061879
     0.554542195  0.823640947  0.739486649
     0.082319869  0.184752218  0.671061879
     0.860097796  0.295863119  0.260513351
     0.610097750  0.545863169  0.328938121
     0.137875424  0.906974440  0.260513351
     0.582320019  0.684752008  0.397362860
     0.332319973  0.934752058  0.465787630
     0.860097646  0.295863329  0.397362860
     0.304542241  0.073640897  0.534212370
     0.054542195  0.323640947  0.602637140
     0.582319869  0.684752218  0.534212370
     0.026764463  0.462529785  0.671061879
     0.776764417  0.712529836  0.739486649
     0.304542091  0.073641106  0.671061879
     0.582319869  0.684752218  0.260513351
     0.304542091  0.073641107  0.397362860
     0.026764313  0.462529995  0.534212370
     0.748986536  0.851418884  0.671061879
     0.082320019  0.184752008  0.260513351
     0.832319973  0.434752058  0.328938121
     0.360097646  0.795863329  0.260513351
     0.804542241  0.573640897  0.397362860
     0.554542195  0.823640947  0.465787630
     0.082319869  0.184752218  0.397362860
     0.526764463  0.962529785  0.534212370
     0.276764417  0.212529836  0.602637140
     0.804542091  0.573641107  0.534212370
     0.248986686  0.351418674  0.671061879
     0.998986640  0.601418725  0.739486649
     0.526764313  0.962529995  0.671061879
     0.804542091  0.573641107  0.260513351
     0.526764313  0.962529996  0.397362860
     0.248986535  0.351418884  0.534212370
     0.971208758  0.740307773  0.671061879
     0.304542241  0.073640897  0.260513351
     0.054542195  0.323640947  0.328938121
     0.026764463  0.462529786  0.397362860
     0.776764417  0.712529836  0.465787630
     0.748986685  0.851418674  0.534212370
     0.498986640  0.101418725  0.602637140
     0.471208908  0.240307563  0.671061879
     0.221208862  0.490307613  0.739486649
     0.026764313  0.462529996  0.260513351
     0.748986535  0.851418884  0.397362860
     0.471208758  0.240307773  0.534212370
     0.193430980  0.629196662  0.671061879
     0.276764417  0.212529836  0.328938121
     0.998986639  0.601418725  0.465787630
     0.721208862  0.990307614  0.602637140
     0.443431084  0.379196502  0.739486649
     0.971208908  0.740307563  0.260513351
     0.248986535  0.351418885  0.260513351
     0.693431130  0.129196452  0.397362860
     0.971208758  0.740307773  0.397362860
     0.415653352  0.518085341  0.534212370
     0.693430980  0.129196662  0.534212370
     0.137875574  0.906974230  0.671061879
     0.415653202  0.518085551  0.671061879
     0.193431130  0.629196452  0.260513351
     0.943431084  0.879196503  0.328938121
     0.471208758  0.240307773  0.260513351
     0.915653352  0.018085341  0.397362860
     0.665653306  0.268085391  0.465787630
     0.193430980  0.629196662  0.397362860
     0.637875574  0.406974230  0.534212370
     0.387875528  0.656974280  0.602637140
     0.915653202  0.018085551  0.534212370
     0.360097797  0.795863119  0.671061879
     0.110097751  0.045863169  0.739486649
     0.637875424  0.406974440  0.671061879
     0.415653352  0.518085341  0.260513351
     0.165653306  0.768085392  0.328938121
     0.137875574  0.906974230  0.397362860
     0.887875528  0.156974280  0.465787630
     0.860097797  0.295863119  0.534212370
     0.610097751  0.545863169  0.602637140
     0.582320019  0.684752008  0.671061879
     0.332319973  0.934752058  0.739486649
     0.387875544  0.156974273  0.328938121
     0.110097766  0.545863161  0.465787630
     0.832319988  0.934752050  0.602637140
     0.554542211  0.323640939  0.739486649
     0.610097766  0.045863162  0.328938121
     0.332319988  0.434752050  0.465787630
     0.054542211  0.823640939  0.602637140
     0.776764433  0.212529828  0.739486649
     0.498986655  0.601418717  0.328938121
     0.221208877  0.990307606  0.465787630
     0.943431100  0.379196495  0.602637140
     0.665653322  0.768085383  0.739486649
     0.721208877  0.490307606  0.328938121
     0.443431099  0.879196495  0.465787630
     0.165653322  0.268085384  0.602637140
     0.887875544  0.656974272  0.739486649
     0.943431099  0.379196495  0.328938121
     0.665653322  0.768085384  0.465787630
     0.387875544  0.156974272  0.602637140
     0.110097766  0.545863161  0.739486649
     0.165653322  0.268085384  0.328938121
     0.887875544  0.656974273  0.465787630
     0.610097766  0.045863161  0.602637140
     0.332319988  0.434752050  0.739486649
     0.832319988  0.934752050  0.328938121
     0.554542211  0.323640939  0.465787630
     0.276764433  0.712529828  0.602637140
     0.998986655  0.101418717  0.739486649
     0.054542210  0.823640939  0.328938121
     0.776764433  0.212529828  0.465787630
     0.498986655  0.601418717  0.602637140
     0.221208877  0.990307606  0.739486649
     0.276764433  0.712529828  0.328938121
     0.998986655  0.101418717  0.465787630
     0.721208877  0.490307606  0.602637140
     0.443431100  0.879196495  0.739486649
     0.887875530  0.156974278  0.602637120
     0.610097752  0.545863167  0.739486629
     0.443430974  0.379196656  0.328938101
     0.165653197  0.768085545  0.465787610
     0.110097752  0.045863167  0.602637120
     0.832319975  0.434752055  0.739486629
     0.665653197  0.268085545  0.328938101
     0.387875419  0.656974434  0.465787610
     0.332319975  0.934752056  0.602637120
     0.054542197  0.323640944  0.739486629
     0.887875419  0.156974434  0.328938101
     0.610097641  0.545863322  0.465787610
     0.776764419  0.712529833  0.602637120
     0.498986641  0.101418722  0.739486629
     0.554542197  0.823640945  0.602637120
     0.276764419  0.212529833  0.739486629
     0.110097641  0.045863323  0.328938101
     0.832319863  0.434752211  0.465787610
     0.998986641  0.601418722  0.602637120
     0.721208864  0.990307611  0.739486629
     0.554542085  0.823641100  0.328938101
     0.276764308  0.212529989  0.465787610
     0.332319863  0.934752211  0.328938101
     0.054542086  0.323641100  0.465787610
     0.221208863  0.490307611  0.602637120
     0.943431086  0.879196500  0.739486629
     0.776764308  0.712529989  0.328938101
     0.498986530  0.101418878  0.465787610
     0.443431086  0.379196500  0.602637120
     0.165653308  0.768085389  0.739486629
     0.998986530  0.601418878  0.328938101
     0.721208752  0.990307767  0.465787610
     0.665653308  0.268085389  0.602637120
     0.387875530  0.656974278  0.739486629
     0.221208752  0.490307767  0.328938101
     0.943430974  0.879196656  0.465787610

  ion indices of the primitive-cell ions
   primitive index   ion index
                 1           1
                 2           2
                 3           3
                 4           4
                 5           5
                 6           6
                 7           7
                 8           8
                 9           9
                10          10
                11          11
                12          12
                13          13
                14          14
                15          15
                16          16
                17          17
                18          18
                19          19
                20          20
                21          21
                22          22
                23          23
                24          24
                25          25
                26          26
                27          27
                28          28
                29          29
                30          30
                31          31
                32          32
                33          33
                34          34
                35          35
                36          36
                37          37
                38          38
                39          39
                40          40
                41          41
                42          42
                43          43
                44          44
                45          45
                46          46
                47          47
                48          48
                49          49
                50          50
                51          51
                52          52
                53          53
                54          54
                55          55
                56          56
                57          57
                58          58
                59          59
                60          60
                61          61
                62          62
                63          63
                64          64
                65          65
                66          66
                67          67
                68          68
                69          69
                70          70
                71          71
                72          72
                73          73
                74          74
                75          75
                76          76
                77          77
                78          78
                79          79
                80          80
                81          81
                82          82
                83          83
                84          84
                85          85
                86          86
                87          87
                88          88
                89          89
                90          90
                91          91
                92          92
                93          93
                94          94
                95          95
                96          96
                97          97
                98          98
                99          99
               100         100
               101         101
               102         102
               103         103
               104         104
               105         105
               106         106
               107         107
               108         108
               109         109
               110         110
               111         111
               112         112
               113         113
               114         114
               115         115
               116         116
               117         117
               118         118
               119         119
               120         120
               121         121
               122         122
               123         123
               124         124
               125         125
               126         126
               127         127
               128         128
               129         129
               130         130
               131         131
               132         132
               133         133
               134         134
               135         135
               136         136
               137         137
               138         138
               139         139
               140         140
               141         141
               142         142
               143         143
               144         144
               145         145
               146         146
               147         147
               148         148
               149         149
               150         150
               151         151
               152         152
               153         153
               154         154
               155         155
               156         156
               157         157
               158         158
               159         159
               160         160
               161         161
               162         162
               163         163
               164         164
               165         165
               166         166
               167         167
               168         168
               169         169
               170         170
               171         171
               172         172
               173         173
               174         174
               175         175
               176         176
               177         177
               178         178
               179         179
               180         180

----------------------------------------------------------------------------------------

 
 -----------------------------------------------------------------------------
|                                                                             |
|           W    W    AA    RRRRR   N    N  II  N    N   GGGG   !!!           |
|           W    W   A  A   R    R  NN   N  II  NN   N  G    G  !!!           |
|           W    W  A    A  R    R  N N  N  II  N N  N  G       !!!           |
|           W WW W  AAAAAA  RRRRR   N  N N  II  N  N N  G  GGG   !            |
|           WW  WW  A    A  R   R   N   NN  II  N   NN  G    G                |
|           W    W  A    A  R    R  N    N  II  N    N   GGGG   !!!           |
|                                                                             |
|     The requested file  could not be found or opened for reading            |
|     k-point information. Automatic k-point generation is used as a          |
|     fallback, which may lead to unwanted results.                           |
|                                                                             |
 -----------------------------------------------------------------------------

 

Automatic generation of k-mesh.
 Grid dimensions derived from KSPACING:
 generate k-points for:    2    2    1

 Generating k-lattice:

  Cartesian coordinates                     Fractional coordinates (reciprocal lattice)
    -0.048785696  0.013532948  0.000000000     0.500000000  0.000000000  0.000000000
     0.052436238 -0.034809863  0.000000000     0.000000000  0.500000000  0.000000000
     0.000000000  0.000000000  0.043418892     0.000000000  0.000000000  1.000000000

  Length of vectors
     0.050627905  0.062938745  0.043418892

  Shift w.r.t. Gamma in fractional coordinates (k-lattice)
     0.000000000  0.000000000  0.000000000

 
 Subroutine IBZKPT returns following result:
 ===========================================
 
 Found      4 irreducible k-points:
 
 Following reciprocal coordinates:
            Coordinates               Weight
  0.000000  0.000000  0.000000      1.000000
  0.500000  0.000000  0.000000      1.000000
  0.000000  0.500000  0.000000      1.000000
  0.500000  0.500000  0.000000      1.000000
 
 Following cartesian coordinates:
            Coordinates               Weight
  0.000000  0.000000  0.000000      1.000000
 -0.048786  0.013533  0.000000      1.000000
  0.052436 -0.034810  0.000000      1.000000
  0.003651 -0.021277  0.000000      1.000000
 


--------------------------------------------------------------------------------------------------------




 Dimension of arrays:
   k-points           NKPTS =      4   k-points in BZ     NKDIM =      4   number of bands    NBANDS=    384
   number of dos      NEDOS =    301   number of ions     NIONS =    180
   non local maximal  LDIM  =      4   non local SUM 2l+1 LMDIM =      8
   total plane-waves  NPLWV = ******
   max r-space proj   IRMAX =   4627   max aug-charges    IRDMAX=  20420
   dimension x,y,z NGX =   160 NGY =  126 NGZ =  120
   dimension x,y,z NGXF=   320 NGYF=  252 NGZF=  240
   support grid    NGXF=   320 NGYF=  252 NGZF=  240
   ions per type =             108  36  36
   NGX,Y,Z   is equivalent  to a cutoff of   8.36,  8.18,  8.66 a.u.
   NGXF,Y,Z  is equivalent  to a cutoff of  16.71, 16.36, 17.32 a.u.

 SYSTEM =  unknown system                          
 POSCAR =  Na  O Cl                                

 Startparameter for this run:
   NWRITE =      1    write-flag & timer
   PREC   = normal    normal or accurate (medium, high low for compatibility)
   ISTART =      0    job   : 0-new  1-cont  2-samecut
   ICHARG =      2    charge: 1-file 2-atom 10-const
   ISPIN  =      1    spin polarized calculation?
   LNONCOLLINEAR =      F non collinear calculations
   LSORBIT =      F    spin-orbit coupling
   INIWAV =      1    electr: 0-lowe 1-rand  2-diag
   LASPH  =      T    aspherical Exc in radial PAW
 Electronic Relaxation 1
   ENCUT  =  400.0 eV  29.40 Ry    5.42 a.u.  51.91 41.76 37.56*2*pi/ulx,y,z
   ENINI  =  400.0     initial cutoff
   ENAUG  =  605.4 eV  augmentation charge cutoff
   NELM   =    150;   NELMIN=  2; NELMDL=  0     # of ELM steps 
   EDIFF  = 0.1E-07   stopping-criterion for ELM
   LREAL  =      T    real-space projection
   NLSPLINE    = F    spline interpolate recip. space projectors
   LCOMPAT=      F    compatible to vasp.4.4
   GGA_COMPAT  = T    GGA compatible to vasp.4.4-vasp.4.6
   LMAXPAW     = -100 max onsite density
   LMAXMIX     =    6 max onsite mixed and CHGCAR
   VOSKOWN=      0    Vosko Wilk Nusair interpolation
   ROPT   =   -0.00050  -0.00050  -0.00050
 Ionic relaxation
   EDIFFG = -.1E-01   stopping-criterion for IOM
   NSW    =    800    number of steps for IOM
   NBLOCK =      1;   KBLOCK =    800    inner block; outer block 
   IBRION =      2    ionic relax: 0-MD 1-quasi-New 2-CG
   NFREE  =      1    steps in history (QN), initial steepest desc. (CG)
   ISIF   =      2    stress and relaxation
   IWAVPR =     11    prediction:  0-non 1-charg 2-wave 3-comb
   ISYM   =      0    0-nonsym 1-usesym 2-fastsym
   LCORR  =      T    Harris-Foulkes like correction to forces

   POTIM  = 0.5000    time-step for ionic-motion
   TEIN   =    0.0    initial temperature
   TEBEG  =    0.0;   TEEND  =   0.0 temperature during run
   SMASS  =  -3.00    Nose mass-parameter (am)
   estimated Nose-frequenzy (Omega)   =  0.10E-29 period in steps = 0.13E+47 mass=  -0.232E-25a.u.
   SCALEE = 1.0000    scale energy and forces
   NPACO  =    256;   APACO  = 16.0  distance and # of slots for P.C.
   PSTRESS=    0.0 pullay stress

  Mass of Ions in am
   POMASS =  22.99 16.00 35.45
  Ionic Valenz
   ZVAL   =   1.00  6.00  7.00
  Atomic Wigner-Seitz radii
   RWIGS  =  -1.00 -1.00 -1.00
  virtual crystal weights 
   VCA    =   1.00  1.00  1.00
   NELECT =     576.0000    total number of electrons
   NUPDOWN=      -1.0000    fix difference up-down

 DOS related values:
   EMIN   =  10.00;   EMAX   =-10.00  energy-range for DOS
   EFERMI =   0.00
   ISMEAR =     0;   SIGMA  =   0.10  broadening in eV -4-tet -1-fermi 0-gaus

 Electronic relaxation 2 (details)
   IALGO  =     68    algorithm
   LDIAG  =      T    sub-space diagonalisation (order eigenvalues)
   LSUBROT=      F    optimize rotation matrix (better conditioning)
   TURBO    =      0    0=normal 1=particle mesh
   IRESTART =      0    0=no restart 2=restart with 2 vectors
   NREBOOT  =      0    no. of reboots
   NMIN     =      0    reboot dimension
   EREF     =   0.00    reference energy to select bands
   IMIX   =      4    mixing-type and parameters
     AMIX     =   0.40;   BMIX     =  1.00
     AMIX_MAG =   1.60;   BMIX_MAG =  1.00
     AMIN     =   0.10
     WC   =   100.;   INIMIX=   1;  MIXPRE=   1;  MAXMIX= -45

 Intra band minimization:
   WEIMIN = 0.0010     energy-eigenvalue tresh-hold
   EBREAK =  0.65E-11  absolut break condition
   DEPER  =   0.30     relativ break condition  

   TIME   =   0.40     timestep for ELM

  volume/ion in A,a.u.               =      32.36       218.35
  Fermi-wavevector in a.u.,A,eV,Ry     =   0.757071  1.430656  7.798260  0.573156
  Thomas-Fermi vector in A             =   1.855334
 
 Write flags
   LWAVE        =      F    write WAVECAR
   LDOWNSAMPLE  =      F    k-point downsampling of WAVECAR
   LCHARG       =      F    write CHGCAR
   LVTOT        =      F    write LOCPOT, total local potential
   LVHAR        =      F    write LOCPOT, Hartree potential only
   LELF         =      F    write electronic localiz. function (ELF)
   LORBIT       =      0    0 simple, 1 ext, 2 COOP (PROOUT), +10 PAW based schemes


 Dipole corrections
   LMONO  =      F    monopole corrections only (constant potential shift)
   LDIPOL =      T    correct potential (dipole corrections)
   IDIPOL =      3    1-x, 2-y, 3-z, 4-all directions 
   EPSILON=  1.0000000 bulk dielectric constant

 Exchange correlation treatment:
   GGA     =    PE    GGA type
   LEXCH   =     8    internal setting for exchange type
   VOSKOWN=      0    Vosko Wilk Nusair interpolation
   LHFCALC =     F    Hartree Fock is set to
   LHFONE  =     F    Hartree Fock one center treatment
   AEXX    =    0.0000 exact exchange contribution

 Linear response parameters
   LEPSILON=     F    determine dielectric tensor
   LRPA    =     F    only Hartree local field effects (RPA)
   LNABLA  =     F    use nabla operator in PAW spheres
   LVEL    =     F    velocity operator in full k-point grid
   LINTERFAST=   F  fast interpolation
   KINTER  =     0    interpolate to denser k-point grid
   CSHIFT  =0.1000    complex shift for real part using Kramers Kronig
   OMEGAMAX=  -1.0    maximum frequency
   DEG_THRESHOLD= 0.2000000E-02 threshold for treating states as degnerate
   RTIME   =   -0.100 relaxation time in fs
  (WPLASMAI=    0.000 imaginary part of plasma frequency in eV, 0.658/RTIME)
   DFIELD  = 0.0000000 0.0000000 0.0000000 field for delta impulse in time
 
 Orbital magnetization related:
   ORBITALMAG=     F  switch on orbital magnetization
   LCHIMAG   =     F  perturbation theory with respect to B field
   DQ        =  0.001000  dq finite difference perturbation B field
   LLRAUG    =     F  two centre corrections for induced B field



--------------------------------------------------------------------------------------------------------


 conjugate gradient relaxation of ions
 charge density and potential will be updated during run
 non-spin polarized calculation
 RMM-DIIS sequential band-by-band and
  variant of blocked Davidson during initial phase
 perform sub-space diagonalisation
    before iterative eigenvector-optimisation
 modified Broyden-mixing scheme, WC =      100.0
 initial mixing is a Kerker type mixing with AMIX =  0.4000 and BMIX =      1.0000
 Hartree-type preconditioning will be used
 using additional bands           96
 real space projection scheme for non local part
 use partial core corrections
 calculate Harris-corrections to forces 
   (improved forces if not selfconsistent)
 use gradient corrections 
 use of overlap-Matrix (Vanderbilt PP)
 Gauss-broadening in eV      SIGMA  =   0.10


--------------------------------------------------------------------------------------------------------


  energy-cutoff  :      400.00
  volume of cell :     5824.22
      direct lattice vectors                 reciprocal lattice vectors
   -17.605519200-26.520276080  0.000000000    -0.097571392  0.027065895  0.000000000
    -6.844455720-24.673969480  0.000000000     0.104872475 -0.069619727  0.000000000
     0.000000000  0.000000000 23.031449165     0.000000000  0.000000000  0.043418892

  length of vectors
    31.832049096 25.605689680 23.031449165     0.101255811  0.125877489  0.043418892


 
 k-points in units of 2pi/SCALE and weight: read from INCAR                         
   0.00000000  0.00000000  0.00000000       0.250
  -0.04878570  0.01353295  0.00000000       0.250
   0.05243624 -0.03480986  0.00000000       0.250
   0.00365054 -0.02127692  0.00000000       0.250
 
 k-points in reciprocal lattice and weights: read from INCAR                         
   0.00000000  0.00000000  0.00000000       0.250
   0.50000000  0.00000000  0.00000000       0.250
   0.00000000  0.50000000  0.00000000       0.250
   0.50000000  0.50000000  0.00000000       0.250
 
 position of ions in fractional coordinates (direct lattice) 
   0.52676446  0.96252979  0.26051335
   0.24898669  0.35141867  0.39736286
   0.97120891  0.74030756  0.53421237
   0.69343113  0.12919645  0.67106188
   0.74898669  0.85141867  0.26051335
   0.49898664  0.10141872  0.32893812
   0.47120891  0.24030756  0.39736286
   0.22120886  0.49030761  0.46578763
   0.19343113  0.62919645  0.53421237
   0.94343108  0.87919650  0.60263714
   0.91565335  0.01808534  0.67106188
   0.66565331  0.26808539  0.73948665
   0.72120886  0.99030761  0.32893812
   0.44343108  0.37919650  0.46578763
   0.16565331  0.76808539  0.60263714
   0.88787553  0.15697428  0.73948665
   0.69343098  0.12919666  0.26051335
   0.41565320  0.51808555  0.39736286
   0.13787542  0.90697444  0.53421237
   0.86009765  0.29586333  0.67106188
   0.63787557  0.40697423  0.26051335
   0.38787553  0.65697428  0.32893812
   0.91565320  0.01808555  0.26051335
   0.36009780  0.79586312  0.39736286
   0.11009775  0.04586317  0.46578763
   0.63787542  0.40697444  0.39736286
   0.08232002  0.18475201  0.53421237
   0.83231997  0.43475206  0.60263714
   0.36009765  0.79586333  0.53421237
   0.80454224  0.57364090  0.67106188
   0.55454220  0.82364095  0.73948665
   0.08231987  0.18475222  0.67106188
   0.86009780  0.29586312  0.26051335
   0.61009775  0.54586317  0.32893812
   0.13787542  0.90697444  0.26051335
   0.58232002  0.68475201  0.39736286
   0.33231997  0.93475206  0.46578763
   0.86009765  0.29586333  0.39736286
   0.30454224  0.07364090  0.53421237
   0.05454220  0.32364095  0.60263714
   0.58231987  0.68475222  0.53421237
   0.02676446  0.46252979  0.67106188
   0.77676442  0.71252984  0.73948665
   0.30454209  0.07364111  0.67106188
   0.58231987  0.68475222  0.26051335
   0.30454209  0.07364111  0.39736286
   0.02676431  0.46253000  0.53421237
   0.74898654  0.85141888  0.67106188
   0.08232002  0.18475201  0.26051335
   0.83231997  0.43475206  0.32893812
   0.36009765  0.79586333  0.26051335
   0.80454224  0.57364090  0.39736286
   0.55454219  0.82364095  0.46578763
   0.08231987  0.18475222  0.39736286
   0.52676446  0.96252979  0.53421237
   0.27676442  0.21252984  0.60263714
   0.80454209  0.57364111  0.53421237
   0.24898669  0.35141867  0.67106188
   0.99898664  0.60141872  0.73948665
   0.52676431  0.96253000  0.67106188
   0.80454209  0.57364111  0.26051335
   0.52676431  0.96253000  0.39736286
   0.24898654  0.35141888  0.53421237
   0.97120876  0.74030777  0.67106188
   0.30454224  0.07364090  0.26051335
   0.05454219  0.32364095  0.32893812
   0.02676446  0.46252979  0.39736286
   0.77676442  0.71252984  0.46578763
   0.74898669  0.85141867  0.53421237
   0.49898664  0.10141872  0.60263714
   0.47120891  0.24030756  0.67106188
   0.22120886  0.49030761  0.73948665
   0.02676431  0.46253000  0.26051335
   0.74898654  0.85141888  0.39736286
   0.47120876  0.24030777  0.53421237
   0.19343098  0.62919666  0.67106188
   0.27676442  0.21252984  0.32893812
   0.99898664  0.60141872  0.46578763
   0.72120886  0.99030761  0.60263714
   0.44343108  0.37919650  0.73948665
   0.97120891  0.74030756  0.26051335
   0.24898654  0.35141888  0.26051335
   0.69343113  0.12919645  0.39736286
   0.97120876  0.74030777  0.39736286
   0.41565335  0.51808534  0.53421237
   0.69343098  0.12919666  0.53421237
   0.13787557  0.90697423  0.67106188
   0.41565320  0.51808555  0.67106188
   0.19343113  0.62919645  0.26051335
   0.94343108  0.87919650  0.32893812
   0.47120876  0.24030777  0.26051335
   0.91565335  0.01808534  0.39736286
   0.66565331  0.26808539  0.46578763
   0.19343098  0.62919666  0.39736286
   0.63787557  0.40697423  0.53421237
   0.38787553  0.65697428  0.60263714
   0.91565320  0.01808555  0.53421237
   0.36009780  0.79586312  0.67106188
   0.11009775  0.04586317  0.73948665
   0.63787542  0.40697444  0.67106188
   0.41565335  0.51808534  0.26051335
   0.16565331  0.76808539  0.32893812
   0.13787557  0.90697423  0.39736286
   0.88787553  0.15697428  0.46578763
   0.86009780  0.29586312  0.53421237
   0.61009775  0.54586317  0.60263714
   0.58232002  0.68475201  0.67106188
   0.33231997  0.93475206  0.73948665
   0.38787554  0.15697427  0.32893812
   0.11009777  0.54586316  0.46578763
   0.83231999  0.93475205  0.60263714
   0.55454221  0.32364094  0.73948665
   0.61009777  0.04586316  0.32893812
   0.33231999  0.43475205  0.46578763
   0.05454221  0.82364094  0.60263714
   0.77676443  0.21252983  0.73948665
   0.49898665  0.60141872  0.32893812
   0.22120888  0.99030761  0.46578763
   0.94343110  0.37919649  0.60263714
   0.66565332  0.76808538  0.73948665
   0.72120888  0.49030761  0.32893812
   0.44343110  0.87919649  0.46578763
   0.16565332  0.26808538  0.60263714
   0.88787554  0.65697427  0.73948665
   0.94343110  0.37919649  0.32893812
   0.66565332  0.76808538  0.46578763
   0.38787554  0.15697427  0.60263714
   0.11009777  0.54586316  0.73948665
   0.16565332  0.26808538  0.32893812
   0.88787554  0.65697427  0.46578763
   0.61009777  0.04586316  0.60263714
   0.33231999  0.43475205  0.73948665
   0.83231999  0.93475205  0.32893812
   0.55454221  0.32364094  0.46578763
   0.27676443  0.71252983  0.60263714
   0.99898666  0.10141872  0.73948665
   0.05454221  0.82364094  0.32893812
   0.77676443  0.21252983  0.46578763
   0.49898666  0.60141872  0.60263714
   0.22120888  0.99030761  0.73948665
   0.27676443  0.71252983  0.32893812
   0.99898665  0.10141872  0.46578763
   0.72120888  0.49030761  0.60263714
   0.44343110  0.87919649  0.73948665
   0.88787553  0.15697428  0.60263712
   0.61009775  0.54586317  0.73948663
   0.44343097  0.37919666  0.32893810
   0.16565320  0.76808554  0.46578761
   0.11009775  0.04586317  0.60263712
   0.83231997  0.43475206  0.73948663
   0.66565320  0.26808554  0.32893810
   0.38787542  0.65697443  0.46578761
   0.33231997  0.93475206  0.60263712
   0.05454220  0.32364094  0.73948663
   0.88787542  0.15697443  0.32893810
   0.61009764  0.54586332  0.46578761
   0.77676442  0.71252983  0.60263712
   0.49898664  0.10141872  0.73948663
   0.55454220  0.82364094  0.60263712
   0.27676442  0.21252983  0.73948663
   0.11009764  0.04586332  0.32893810
   0.83231986  0.43475221  0.46578761
   0.99898664  0.60141872  0.60263712
   0.72120886  0.99030761  0.73948663
   0.55454209  0.82364110  0.32893810
   0.27676431  0.21252999  0.46578761
   0.33231986  0.93475221  0.32893810
   0.05454209  0.32364110  0.46578761
   0.22120886  0.49030761  0.60263712
   0.94343109  0.87919650  0.73948663
   0.77676431  0.71252999  0.32893810
   0.49898653  0.10141888  0.46578761
   0.44343109  0.37919650  0.60263712
   0.16565331  0.76808539  0.73948663
   0.99898653  0.60141888  0.32893810
   0.72120875  0.99030777  0.46578761
   0.66565331  0.26808539  0.60263712
   0.38787553  0.65697428  0.73948663
   0.22120875  0.49030777  0.32893810
   0.94343097  0.87919666  0.46578761
 
 position of ions in cartesian coordinates  (Angst):
 -15.86195437-37.71936955  6.00000000
  -6.78880943-15.27408928  9.15184252
 -22.16563941-44.02305458 12.30368504
 -13.09249447-21.57777432 15.45552756
 -19.01379689-40.87121207  6.00000000
  -9.47907483-15.73566596  7.57592161
  -9.94065195-18.42593180  9.15184252
  -7.25038561-17.96435518 10.72776413
  -7.71196273-20.65462102 12.30368504
 -22.62721559-46.71332048 13.87960665
 -16.24433699-24.72961684 15.45552756
 -13.55407065-24.26804022 17.03144916
 -19.47537307-43.56147796  7.57592161
 -10.40222813-21.11619770 10.72776413
  -8.17353891-23.34488692 13.87960665
 -16.70591317-27.41988274 17.03144916
 -13.09249326-21.57777553  6.00000000
 -10.86380404-23.80646475  9.15184252
  -8.63511482-26.03515397 12.30368504
 -17.16748908-30.11014979 15.45552756
 -14.01564777-26.95830607  6.00000000
 -11.32538143-26.49672944  7.57592161
 -16.24433578-24.72961805  6.00000000
 -11.78695855-29.18699528  9.15184252
  -2.25223649 -4.05144918 10.72776413
 -14.01564656-26.95830727  9.15184252
  -2.71381361 -6.74171502 12.30368504
 -17.62906647-32.80041448 13.87960665
 -11.78695734-29.18699649 12.30368504
 -18.09064359-35.49068032 15.45552756
 -15.40037725-35.02910370 17.03144916
  -2.71381240 -6.74171623 15.45552756
 -17.16749029-30.11014859  6.00000000
 -14.47722395-29.64857196  7.57592161
  -8.63511482-26.03515397  6.00000000
 -14.93880107-32.33883780  9.15184252
 -12.24853473-31.87726118 10.72776413
 -17.16748908-30.11014979  9.15184252
  -5.86565613 -9.89355754 12.30368504
  -3.17538979 -9.43198092 13.87960665
 -14.93879986-32.33883901 12.30368504
  -3.63696691-12.12224676 15.45552756
 -18.55221977-38.18094622 17.03144916
  -5.86565492 -9.89355875 15.45552756
 -14.93879986-32.33883901  6.00000000
  -5.86565492 -9.89355875  9.15184252
  -3.63696570-12.12224797 12.30368504
 -19.01379568-40.87121327 15.45552756
  -2.71381361 -6.74171503  6.00000000
 -17.62906647-32.80041448  7.57592161
 -11.78695734-29.18699649  6.00000000
 -18.09064359-35.49068032  9.15184252
 -15.40037725-35.02910370 10.72776413
  -2.71381240 -6.74171623  9.15184252
 -15.86195437-37.71936954 12.30368504
  -6.32723231-12.58382344 13.87960665
 -18.09064238-35.49068153 12.30368504
  -6.78880943-15.27408928 15.45552756
 -21.70406229-41.33278874 17.03144916
 -15.86195316-37.71937075 15.45552756
 -18.09064238-35.49068153  6.00000000
 -15.86195316-37.71937075  9.15184252
  -6.78880822-15.27409049 12.30368504
 -22.16563820-44.02305579 15.45552756
  -5.86565613 -9.89355755  6.00000000
  -3.17538979 -9.43198092  7.57592161
  -3.63696691-12.12224676  9.15184252
 -18.55221977-38.18094622 10.72776413
 -19.01379689-40.87121206 12.30368504
  -9.47907483-15.73566596 13.87960665
  -9.94065195-18.42593180 15.45552756
  -7.25038561-17.96435518 17.03144916
  -3.63696570-12.12224797  6.00000000
 -19.01379568-40.87121327  9.15184252
  -9.94065074-18.42593301 12.30368504
  -7.71196152-20.65462223 15.45552756
  -6.32723231-12.58382344  7.57592161
 -21.70406229-41.33278874 10.72776413
 -19.47537307-43.56147796 13.87960665
 -10.40222813-21.11619770 17.03144916
 -22.16563941-44.02305459  6.00000000
  -6.78880822-15.27409049  6.00000000
 -13.09249447-21.57777432  9.15184252
 -22.16563820-44.02305579  9.15184252
 -10.86380525-23.80646354 12.30368504
 -13.09249326-21.57777553 12.30368504
  -8.63511603-26.03515276 15.45552756
 -10.86380404-23.80646475 15.45552756
  -7.71196273-20.65462103  6.00000000
 -22.62721559-46.71332048  7.57592161
  -9.94065074-18.42593301  6.00000000
 -16.24433699-24.72961684  9.15184252
 -13.55407065-24.26804022 10.72776413
  -7.71196152-20.65462223  9.15184252
 -14.01564777-26.95830606 12.30368504
 -11.32538143-26.49672944 13.87960665
 -16.24433578-24.72961805 12.30368504
 -11.78695855-29.18699528 15.45552756
  -2.25223649 -4.05144918 17.03144916
 -14.01564656-26.95830727 15.45552756
 -10.86380525-23.80646355  6.00000000
  -8.17353891-23.34488692  7.57592161
  -8.63511603-26.03515276  9.15184252
 -16.70591317-27.41988274 10.72776413
 -17.16749029-30.11014858 12.30368504
 -14.47722395-29.64857196 13.87960665
 -14.93880107-32.33883780 15.45552756
 -12.24853473-31.87726118 17.03144916
  -7.90315379-14.15974492  7.57592161
  -5.67446457-16.38843414 10.72776413
 -21.05129455-45.13739944 13.87960665
 -11.97814961-22.69211918 17.03144916
 -11.05499631-17.31158744  7.57592161
  -8.82630709-19.54027666 10.72776413
  -6.59761787-21.76896588 13.87960665
 -15.12999213-25.84396170 17.03144916
 -12.90130291-28.07265092  7.57592161
 -10.67261369-30.30134014 10.72776413
 -19.20498795-34.37633596 13.87960665
 -16.97629873-36.60502518 17.03144916
 -16.05314543-31.22449344  7.57592161
 -13.82445621-33.45318266 10.72776413
  -4.75131127-11.00790240 13.87960665
 -20.12814125-39.75686770 17.03144916
 -19.20498795-34.37633596  7.57592161
 -16.97629873-36.60502518 10.72776413
  -7.90315379-14.15974492 13.87960665
  -5.67446457-16.38843414 17.03144916
  -4.75131127-11.00790240  7.57592161
 -20.12814125-39.75686770 10.72776413
 -11.05499631-17.31158744 13.87960665
  -8.82630709-19.54027666 17.03144916
 -21.05129455-45.13739944  7.57592161
 -11.97814961-22.69211918 10.72776413
  -9.74946039-24.92080840 13.87960665
 -18.28183465-28.99580422 17.03144916
  -6.59761787-21.76896588  7.57592161
 -15.12999213-25.84396170 10.72776413
 -12.90130291-28.07265092 13.87960665
 -10.67261369-30.30134014 17.03144916
  -9.74946039-24.92080840  7.57592161
 -18.28183465-28.99580422 10.72776413
 -16.05314543-31.22449344 13.87960665
 -13.82445621-33.45318266 17.03144916
 -16.70591319-27.41988272 13.87960618
 -14.47722397-29.64857194 17.03144870
 -10.40222725-21.11619858  7.57592114
  -8.17353803-23.34488780 10.72776366
  -2.25223651 -4.05144916 13.87960618
 -17.62906649-32.80041446 17.03144870
 -13.55406977-24.26804110  7.57592114
 -11.32538055-26.49673032 10.72776366
 -12.24853475-31.87726116 13.87960618
  -3.17538981 -9.43198090 17.03144870
 -16.70591229-27.41988362  7.57592114
 -14.47722307-29.64857284 10.72776366
 -18.55221979-38.18094620 13.87960618
  -9.47907485-15.73566594 17.03144870
 -15.40037727-35.02910368 13.87960618
  -6.32723233-12.58382342 17.03144870
  -2.25223561 -4.05145006  7.57592114
 -17.62906559-32.80041536 10.72776366
 -21.70406231-41.33278872 13.87960618
 -19.47537309-43.56147794 17.03144870
 -15.40037637-35.02910458  7.57592114
  -6.32723143-12.58382432 10.72776366
 -12.24853385-31.87726206  7.57592114
  -3.17538891 -9.43198180 10.72776366
  -7.25038563-17.96435516 13.87960618
 -22.62721561-46.71332046 17.03144870
 -18.55221889-38.18094710  7.57592114
  -9.47907395-15.73566684 10.72776366
 -10.40222815-21.11619768 13.87960618
  -8.17353893-23.34488690 17.03144870
 -21.70406141-41.33278962  7.57592114
 -19.47537219-43.56147884 10.72776366
 -13.55407067-24.26804020 13.87960618
 -11.32538145-26.49672942 17.03144870
  -7.25038473-17.96435606  7.57592114
 -22.62721471-46.71332136 10.72776366
 


--------------------------------------------------------------------------------------------------------


 k-point   1 :   0.0000 0.0000 0.0000  plane waves:  105867
 k-point   2 :   0.5000 0.0000 0.0000  plane waves:  105908
 k-point   3 :   0.0000 0.5000 0.0000  plane waves:  105804
 k-point   4 :   0.5000 0.5000 0.0000  plane waves:  105884

 maximum and minimum number of plane-waves per node :      6649     6592

 maximum number of plane-waves:    105908
 maximum index in each direction: 
   IXMAX=   51   IYMAX=   41   IZMAX=   37
   IXMIN=  -52   IYMIN=  -42   IZMIN=  -37


 real space projection operators:
  total allocation   :      29035.50 KBytes
  max/ min on nodes  :       1817.37       1810.61


 parallel 3D FFT for wavefunctions:
    minimum data exchange during FFTs selected (reduces bandwidth)
 parallel 3D FFT for charge:
    minimum data exchange during FFTs selected (reduces bandwidth)


 total amount of memory used by VASP MPI-rank0    95373. kBytes
=======================================================================

   base      :      30000. kBytes
   nonlr-proj:      16383. kBytes
   fftplans  :      10608. kBytes
   grid      :      17752. kBytes
   one-center:         36. kBytes
   wavefun   :      20594. kBytes
 
     INWAV:  cpu time    0.0001: real time    0.0001
 Broyden mixing: mesh for mixing (old mesh)
   NGX =103   NGY = 83   NGZ = 75
  (NGX  =320   NGY  =252   NGZ  =240)
  gives a total of 641175 points

 initial charge density was supplied:
 charge density of overlapping atoms calculated
 number of electron     576.0000000 magnetization 
 keeping initial charge density in first step


--------------------------------------------------------------------------------------------------------


 Maximum index for non-local projection operator          299
 Maximum index for augmentation-charges          407 (set IRDMAX)


--------------------------------------------------------------------------------------------------------


 First call to EWALD:  gamma=   0.099
 Maximum number of real-space cells 5x 6x 2
 Maximum number of reciprocal cells 4x 4x 3

    FEWALD:  cpu time    0.0065: real time    0.0065


--------------------------------------- Iteration      1(   1)  ---------------------------------------


    POTLOK:  cpu time    0.1720: real time    0.1770
    SETDIJ:  cpu time    0.0949: real time    0.0954
     EDDAV:  cpu time   20.0308: real time   20.7993
       DOS:  cpu time    0.0084: real time    0.0090
    --------------------------------------------
      LOOP:  cpu time   20.3061: real time   21.0807

 eigenvalue-minimisations  :  3224
 total energy-change (2. order) : 0.4857785E+04  (-0.1698499E+05)
 number of electron     576.0000000 magnetization 
 augmentation part      576.0000000 magnetization 

 DIPCOR: dipole corrections for dipol
 direction  3 min pos     2,
 dipolmoment           0.000000      0.000000      0.028293 electrons x Angstroem
 Tr[quadrupol]    -80008.447377

 energy correction for charged system         0.000000 eV
 dipol+quadrupol energy correction           -0.000013 eV
 added-field ion interaction         -0.262840 eV  (added to PSCEN)


 Free energy of the ion-electron system (eV)
  ---------------------------------------------------
  alpha Z        PSCENC =        -6.02219811
  Ewald energy   TEWEN  =     28849.47005426
  -Hartree energ DENC   =    -56401.75232463
  -exchange      EXHF   =         0.00000000
  -V(xc)+E(xc)   XCENC  =     -2243.58181961
  PAW double counting   =     28492.32500843   -24510.25429160
  entropy T*S    EENTRO =        -0.22059658
  eigenvalues    EBANDS =      -190.53376664
  atomic energy  EATOM  =     30868.35515899
  Solvation  Ediel_sol  =         0.00000000
  ---------------------------------------------------
  free energy    TOTEN  =      4857.78522452 eV

  energy without entropy =     4858.00582110  energy(sigma->0) =     4857.89552281


--------------------------------------------------------------------------------------------------------




--------------------------------------- Iteration      1(   2)  ---------------------------------------


     EDDAV:  cpu time   25.1614: real time   26.1602
       DOS:  cpu time    0.0063: real time    0.0063
    --------------------------------------------
      LOOP:  cpu time   25.1677: real time   26.1665

 eigenvalue-minimisations  :  4152
 total energy-change (2. order) :-0.4340071E+04  (-0.4147178E+04)
 number of electron     576.0000000 magnetization 
 augmentation part      576.0000000 magnetization 

 DIPCOR: dipole corrections for dipol
 direction  3 min pos     2,
 dipolmoment           0.000000      0.000000      0.028293 electrons x Angstroem
 Tr[quadrupol]    -80008.447377

 energy correction for charged system         0.000000 eV
 dipol+quadrupol energy correction           -0.000013 eV
 added-field ion interaction         -0.262840 eV  (added to PSCEN)


 Free energy of the ion-electron system (eV)
  ---------------------------------------------------
  alpha Z        PSCENC =        -6.02219811
  Ewald energy   TEWEN  =     28849.47005426
  -Hartree energ DENC   =    -56401.75232463
  -exchange      EXHF   =         0.00000000
  -V(xc)+E(xc)   XCENC  =     -2243.58181961
  PAW double counting   =     28492.32500843   -24510.25429160
  entropy T*S    EENTRO =        -0.00000000
  eigenvalues    EBANDS =     -4530.82570965
  atomic energy  EATOM  =     30868.35515899
  Solvation  Ediel_sol  =         0.00000000
  ---------------------------------------------------
  free energy    TOTEN  =       517.71387808 eV

  energy without entropy =      517.71387808  energy(sigma->0) =      517.71387808


--------------------------------------------------------------------------------------------------------




--------------------------------------- Iteration      1(   3)  ---------------------------------------


     EDDAV:  cpu time   26.0408: real time   27.0940
       DOS:  cpu time    0.0066: real time    0.0066
    --------------------------------------------
      LOOP:  cpu time   26.0474: real time   27.1006

 eigenvalue-minimisations  :  4360
 total energy-change (2. order) :-0.1298901E+04  (-0.1291072E+04)
 number of electron     576.0000000 magnetization 
 augmentation part      576.0000000 magnetization 

 DIPCOR: dipole corrections for dipol
 direction  3 min pos     2,
 dipolmoment           0.000000      0.000000      0.028293 electrons x Angstroem
 Tr[quadrupol]    -80008.447377

 energy correction for charged system         0.000000 eV
 dipol+quadrupol energy correction           -0.000013 eV
 added-field ion interaction         -0.262840 eV  (added to PSCEN)


 Free energy of the ion-electron system (eV)
  ---------------------------------------------------
  alpha Z        PSCENC =        -6.02219811
  Ewald energy   TEWEN  =     28849.47005426
  -Hartree energ DENC   =    -56401.75232463
  -exchange      EXHF   =         0.00000000
  -V(xc)+E(xc)   XCENC  =     -2243.58181961
  PAW double counting   =     28492.32500843   -24510.25429160
  entropy T*S    EENTRO =        -0.00000000
  eigenvalues    EBANDS =     -5829.72654069
  atomic energy  EATOM  =     30868.35515899
  Solvation  Ediel_sol  =         0.00000000
  ---------------------------------------------------
  free energy    TOTEN  =      -781.18695296 eV

  energy without entropy =     -781.18695296  energy(sigma->0) =     -781.18695296


--------------------------------------------------------------------------------------------------------




--------------------------------------- Iteration      1(   4)  ---------------------------------------


     EDDAV:  cpu time   22.6702: real time   23.9013
       DOS:  cpu time    0.0016: real time    0.0016
    --------------------------------------------
      LOOP:  cpu time   22.6717: real time   23.9029

 eigenvalue-minimisations  :  3600
 total energy-change (2. order) :-0.4167110E+02  (-0.4155683E+02)
 number of electron     576.0000000 magnetization 
 augmentation part      576.0000000 magnetization 

 DIPCOR: dipole corrections for dipol
 direction  3 min pos     2,
 dipolmoment           0.000000      0.000000      0.028293 electrons x Angstroem
 Tr[quadrupol]    -80008.447377

 energy correction for charged system         0.000000 eV
 dipol+quadrupol energy correction           -0.000013 eV
 added-field ion interaction         -0.262840 eV  (added to PSCEN)


 Free energy of the ion-electron system (eV)
  ---------------------------------------------------
  alpha Z        PSCENC =        -6.02219811
  Ewald energy   TEWEN  =     28849.47005426
  -Hartree energ DENC   =    -56401.75232463
  -exchange      EXHF   =         0.00000000
  -V(xc)+E(xc)   XCENC  =     -2243.58181961
  PAW double counting   =     28492.32500843   -24510.25429160
  entropy T*S    EENTRO =        -0.00000000
  eigenvalues    EBANDS =     -5871.39764350
  atomic energy  EATOM  =     30868.35515899
  Solvation  Ediel_sol  =         0.00000000
  ---------------------------------------------------
  free energy    TOTEN  =      -822.85805577 eV

  energy without entropy =     -822.85805577  energy(sigma->0) =     -822.85805577


--------------------------------------------------------------------------------------------------------




--------------------------------------- Iteration      1(   5)  ---------------------------------------


     EDDAV:  cpu time   25.2119: real time   26.3392
       DOS:  cpu time    0.0065: real time    0.0069
    CHARGE:  cpu time    0.7663: real time    0.7665
    MIXING:  cpu time    0.0082: real time    0.0094
    --------------------------------------------
      LOOP:  cpu time   25.9929: real time   27.1220

 eigenvalue-minimisations  :  4200
[...]
    -18.16502    -35.41643      9.27546        -0.065094      0.071467     -0.040182
    -15.40300    -35.02717     10.81099         0.006132      0.005561      0.089078
     -2.63593     -6.81629      9.27309         0.048905     -0.051488     -0.016305
    -15.95059    -37.63275     12.47612        -0.002215      0.005693     -0.010634
     -6.32592    -12.58769     14.01179         0.001973     -0.000337     -0.018760
    -18.00507    -35.57894     12.47540         0.004096     -0.000104      0.002084
     -6.92904    -15.13308     15.76147         0.096722     -0.098487     -0.024941
    -21.70719    -41.32922     17.57543        -0.007795     -0.004748     -0.030201
    -15.71977    -37.85615     15.75990        -0.099424      0.115529     -0.010514
    -18.05652    -35.53123      6.02130        -0.098797      0.105661      0.026459
    -15.78410    -37.79059      9.27432         0.065765     -0.071037     -0.036959
     -6.70509    -15.36486     12.47501         0.003891     -0.011010     -0.008007
    -22.02210    -44.15732     15.76133        -0.097717      0.100914     -0.018135
     -5.89842     -9.85785      6.02087         0.096873     -0.096026      0.029999
     -3.17491     -9.43086      7.61690        -0.014931     -0.009737      0.086827
     -3.70774    -12.04989      9.27297        -0.076364      0.079688     -0.036374
    -18.54970    -38.18439     10.80757        -0.007453     -0.009676      0.085724
    -19.10151    -40.78439     12.47540         0.004958     -0.007098      0.003638
     -9.48241    -15.73078     14.01638        -0.011465     -0.010475     -0.024553
    -10.07917    -18.28308     15.75954         0.106850     -0.109594     -0.014009
     -7.24383    -17.96649     17.56207         0.000253     -0.004495     -0.029440
     -3.60290    -12.15452      6.01960        -0.091235      0.095765      0.021921
    -18.94091    -40.94837      9.27677         0.069470     -0.070624     -0.034214
     -9.85480    -18.51162     12.47899         0.032932     -0.023585     -0.034519
     -7.57666    -20.79521     15.76270        -0.084894      0.077955     -0.042879
     -6.32410    -12.58996      7.61108         0.003340     -0.002541      0.088367
    -21.70685    -41.33435     10.80826        -0.007327      0.000041      0.090686
    -19.47337    -43.56201     14.01287        -0.003914     -0.017056     -0.024322
    -10.40736    -21.11207     17.56929         0.001660      0.001544     -0.031202
    -22.20019    -43.99401      6.01859         0.093750     -0.096149      0.029373
     -6.75797    -15.31290      6.01739        -0.096889      0.096641      0.029347
    -13.16705    -21.50666      9.27403        -0.072866      0.066960     -0.038196
    -22.08866    -44.09661      9.27394         0.060970     -0.066238     -0.031179
    -10.94924    -23.71795     12.47769        -0.018377      0.020387     -0.021168
    -13.01034    -21.66787     12.47873         0.015511     -0.018464     -0.019504
     -8.77692    -25.89696     15.76297         0.095230     -0.100575     -0.021948
    -10.72378    -23.94745     15.76085        -0.107790      0.108081     -0.015516
     -7.74490    -20.62488      6.01849         0.088313     -0.094982      0.031033
    -22.63209    -46.71064      7.61442         0.003858      0.005351      0.093248
     -9.90725    -18.45633      6.02046        -0.082802      0.083391      0.015446
    -16.31354    -24.65374      9.27328        -0.083449      0.070991     -0.041598
    -13.55086    -24.26822     10.80737        -0.005845     -0.009654      0.093007
     -7.64000    -20.73343      9.27659         0.074394     -0.071737     -0.039668
    -14.10311    -26.87193     12.47582        -0.006161      0.006500     -0.011087
    -11.32912    -26.49498     14.01232         0.011785      0.013683     -0.021155
    -16.15685    -24.81296     12.47710         0.011905     -0.006041     -0.014061
    -11.92572    -29.04277     15.75993         0.106031     -0.101180     -0.027067
     -2.25478     -4.05269     17.57546         0.011762      0.007369     -0.037627
    -13.87637    -27.09651     15.76146        -0.091665      0.095489     -0.024916
    -10.89534    -23.77183      6.01583         0.091819     -0.097307      0.030348
     -8.17225    -23.34568      7.61479         0.010521      0.006562      0.090725
     -8.70815    -25.96317      9.27543        -0.075446      0.074442     -0.038395
    -16.70834    -27.41442     10.80954         0.001075      0.003310      0.080631
    -17.24978    -30.02339     12.47496        -0.022322      0.026131     -0.026548
    -14.47789    -29.64779     14.01733         0.007159      0.001913     -0.026401
    -15.07933    -32.20248     15.76376         0.094789     -0.096880     -0.027041
    -12.24955    -31.87431     17.56047         0.001194      0.002461     -0.036130
     -7.90419    -14.16609      7.49705        -0.005622     -0.000012     -0.331448
     -5.67583    -16.38769     10.62528         0.018759     -0.006676      0.089661
    -21.05205    -45.14087     13.83493        -0.005063      0.031089      0.146153
    -11.97995    -22.69180     17.01031         0.006144     -0.010542      0.049565
    -11.05231    -17.31204      7.49729        -0.014623      0.016902     -0.318866
     -8.82719    -19.54502     10.62642        -0.003651      0.028266      0.086333
     -6.59920    -21.76908     13.83437         0.004800      0.000301      0.149334
    -15.12972    -25.84121     17.00694         0.005255      0.000300      0.053864
    -12.90261    -28.07599      7.49476         0.001553     -0.003075     -0.322188
    -10.67089    -30.29724     10.62741         0.023927     -0.003772      0.073734
    -19.20751    -34.37819     13.83572         0.002647     -0.024332      0.136863
    -16.96957    -36.59263     17.00870         0.008597     -0.009140      0.050201
    -16.05081    -31.21897      7.49692         0.000988     -0.003028     -0.337399
    -13.82408    -33.45784     10.62696        -0.014471      0.007178      0.091864
     -4.75100    -11.00293     13.83456         0.015838     -0.028851      0.146021
    -20.13280    -39.76483     17.00992        -0.003008      0.005073      0.046083
    -19.20607    -34.38148      7.49589         0.007447      0.003140     -0.330030
    -16.97533    -36.60280     10.62796         0.008026      0.003486      0.073819
     -7.90705    -14.16453     13.83455         0.012081      0.011052      0.131002
     -5.67120    -16.38029     17.00966         0.015068      0.002302      0.048458
     -4.74831    -11.00630      7.49670        -0.001096      0.013061     -0.327296
    -20.13108    -39.76247     10.62727         0.004267      0.007479      0.084576
    -11.05091    -17.31340     13.83411        -0.029214      0.041285      0.145254
     -8.82730    -19.54330     17.00668        -0.013502      0.020505      0.059740
    -21.05312    -45.14031      7.49888         0.010505      0.008496     -0.341742
    -11.98008    -22.69213     10.62703         0.014873     -0.003549      0.084651
     -9.75133    -24.91534     13.83453         0.011480     -0.035181      0.145849
    -18.28686    -29.00576     17.00600        -0.009522      0.001036      0.063902
     -6.59568    -21.77024      7.49591        -0.010942      0.002816     -0.325358
    -15.12973    -25.84073     10.62627         0.021993     -0.016691      0.082839
    -12.89890    -28.07466     13.83422        -0.034626      0.003759      0.143471
    -10.66692    -30.29288     17.00619        -0.012199      0.003931      0.059203
     -9.74951    -24.91574      7.49958         0.006393     -0.028086     -0.356356
    -18.28225    -28.99588     10.62778         0.006734     -0.003043      0.086652
    -16.05084    -31.21704     13.83098         0.002389     -0.030755      0.171241
    -13.82997    -33.46244     17.00937         0.002270     -0.007915      0.052941
    -16.70562    -27.41765     13.53432         0.000290      0.001349     -0.014044
    -14.47533    -29.65073     16.69169        -0.000435     -0.001058      0.154705
    -10.40395    -21.11582      6.85826        -0.000023      0.002655     -0.158568
     -8.17255    -23.34422     10.34892         0.001340     -0.001419      0.038181
     -2.24928     -4.05228     13.53617         0.000290      0.000671     -0.020456
    -17.63008    -32.79997     16.68944         0.005729      0.002832      0.151416
    -13.55309    -24.26874      6.85709         0.002899     -0.002899     -0.157984
    -11.32691    -26.49520     10.34550        -0.000310     -0.004195      0.040008
    -12.24878    -31.87748     13.53482         0.001005     -0.000427     -0.015052
     -3.17559     -9.43099     16.69257        -0.001015     -0.003203      0.154667
    -16.70607    -27.41640      6.86111         0.000784     -0.001763     -0.157695
    -14.47683    -29.64883     10.34954         0.001617     -0.001547      0.038187
    -18.55249    -38.18265     13.53387        -0.002871     -0.002962     -0.014555
     -9.48288    -15.72965     16.69066        -0.003640      0.000262      0.157347
    -15.39984    -35.02979     13.53671        -0.002116      0.002057     -0.019608
     -6.32621    -12.58629     16.69114         0.003346     -0.001509      0.147480
     -2.25156     -4.05048      6.85601         0.002279     -0.000438     -0.155379
    -17.62870    -32.79944     10.34452         0.001482     -0.003184      0.039230
    -21.70617    -41.33348     13.53515         0.002044      0.000268     -0.018455
    -19.47115    -43.56342     16.69135         0.000362      0.001070      0.150325
    -15.40003    -35.02840      6.85488         0.000181     -0.000244     -0.157739
     -6.32685    -12.58658     10.34402         0.002066     -0.000312      0.043703
    -12.24797    -31.87645      6.85881         0.002770     -0.000959     -0.155465
     -3.17473     -9.43139     10.34857         0.000521     -0.001754      0.042012
     -7.24953    -17.96778     13.53380         0.002474      0.001547     -0.016015
    -22.63270    -46.70850     16.69122        -0.001701      0.004053      0.152638
    -18.55198    -38.18290      6.85939         0.002263     -0.006061     -0.154040
     -9.48097    -15.73459     10.34984        -0.003374      0.001128      0.039254
    -10.40323    -21.11463     13.53522        -0.002548     -0.000742     -0.015846
     -8.17152    -23.34891     16.69025         0.000550     -0.000198      0.153649
    -21.70670    -41.33270      6.85530         0.000416     -0.001563     -0.155626
    -19.47371    -43.56357     10.34739        -0.000630      0.004471      0.040961
    -13.55190    -24.26805     13.53581        -0.002180     -0.007054     -0.017307
    -11.32867    -26.49331     16.69027        -0.003824      0.000462      0.153959
     -7.25073    -17.96734      6.85996         0.000699     -0.002913     -0.156464
    -22.62933    -46.71303     10.34962        -0.001300      0.002217      0.034857
 -----------------------------------------------------------------------------------
    total drift:                               -0.002712      0.008766     -0.068665


--------------------------------------------------------------------------------------------------------



  FREE ENERGIE OF THE ION-ELECTRON SYSTEM (eV)
  ---------------------------------------------------
  free  energy   TOTEN  =      -624.75959813 eV

  energy  without entropy=     -624.15177445  energy(sigma->0) =     -624.45568629
 
 d Force = 0.1185599E+00[-0.204E-01, 0.257E+00]  d Energy = 0.1173706E+00 0.119E-02
 d Force = 0.5919438E+03[ 0.592E+03, 0.592E+03]  d Ewald  = 0.5919632E+03-0.194E-01


--------------------------------------------------------------------------------------------------------


    POTLOK:  cpu time    0.3711: real time    0.4272


--------------------------------------------------------------------------------------------------------




--------------------------------------------------------------------------------------------------------


    WAVPRE:  cpu time    0.0986: real time    0.2614
    FEWALD:  cpu time    0.0243: real time    0.0243

 real space projection operators:
  total allocation   :      29029.46 KBytes
  max/ min on nodes  :       1817.73       1809.50

    ORTHCH:  cpu time    3.2063: real time    3.3897
     LOOP+:  cpu time 1043.0783: real time 1090.6591


--------------------------------------- Iteration     15(   1)  ---------------------------------------


    POTLOK:  cpu time    0.2831: real time    0.3565
    SETDIJ:  cpu time    0.1135: real time    0.1135
     EDDAV:  cpu time   37.4013: real time   38.5343
       DOS:  cpu time    0.0318: real time    0.0322
    CHARGE:  cpu time    0.9960: real time    1.0501
    MIXING:  cpu time    0.0194: real time    0.0194
    --------------------------------------------
      LOOP:  cpu time   38.8452: real time   40.1061

 eigenvalue-minimisations  :  3312
 total energy-change (2. order) : 0.4303946E+00  (-0.1967142E+02)
 number of electron     576.0000133 magnetization 
 augmentation part      -10.4316155 magnetization 

 DIPCOR: dipole corrections for dipol
 direction  3 min pos     2,
 dipolmoment           0.000000      0.000000      2.857420 electrons x Angstroem
 Tr[quadrupol]    -80173.519616

 energy correction for charged system         0.000000 eV
 dipol+quadrupol energy correction           -0.133012 eV
 added-field ion interaction        -16.242422 eV  (added to PSCEN)


  free energy =  -0.624329203569E+03  energy without entropy=  -0.623733948096E+03


--------------------------------------------------------------------------------------------------------




--------------------------------------- Iteration     15(   2)  ---------------------------------------


    POTLOK:  cpu time    0.2596: real time    0.7758
    SETDIJ:  cpu time    0.1208: real time    0.1241
    EDDIAG:  cpu time    5.2696: real time    5.3895
  RMM-DIIS:  cpu time   18.3205: real time   19.1701
    ORTHCH:  cpu time    1.0168: real time    1.0168
       DOS:  cpu time    0.0255: real time    0.0256
    CHARGE:  cpu time    1.1219: real time    1.1854
    MIXING:  cpu time    0.0281: real time    0.0281
    --------------------------------------------
      LOOP:  cpu time   26.1628: real time   27.7156

 eigenvalue-minimisations  :  3145
 total energy-change (2. order) :-0.1061129E+01  (-0.6465318E+00)
 number of electron     576.0000126 magnetization 
 augmentation part      -11.0215963 magnetization 

 DIPCOR: dipole corrections for dipol
 direction  3 min pos     2,
 dipolmoment           0.000000      0.000000      3.118467 electrons x Angstroem
 Tr[quadrupol]    -80173.145680

 energy correction for charged system         0.000000 eV
 dipol+quadrupol energy correction           -0.158426 eV
 added-field ion interaction        -17.726294 eV  (added to PSCEN)


 eigenvalues of (default mixing * dielectric matrix)
  average eigenvalue GAMMA=   0.2010
  0.2010

  free energy =  -0.625390332988E+03  energy without entropy=  -0.624697399622E+03


--------------------------------------------------------------------------------------------------------




--------------------------------------- Iteration     15(   3)  ---------------------------------------


    POTLOK:  cpu time    0.2336: real time    0.2353
    SETDIJ:  cpu time    0.1171: real time    0.1171
    EDDIAG:  cpu time    5.2807: real time    5.6387
  RMM-DIIS:  cpu time   20.8174: real time   21.4759
    ORTHCH:  cpu time    1.0852: real time    1.1442
       DOS:  cpu time    0.0241: real time    0.0241
    CHARGE:  cpu time    1.1641: real time    1.1642
    MIXING:  cpu time    0.0238: real time    0.0238
    --------------------------------------------
      LOOP:  cpu time   28.7460: real time   29.8233

 eigenvalue-minimisations  :  3637
 total energy-change (2. order) :-0.4414689E+00  (-0.2178351E+00)
 number of electron     576.0000132 magnetization 
 augmentation part      -10.3522808 magnetization 

 DIPCOR: dipole corrections for dipol
 direction  3 min pos     2,
 dipolmoment           0.000000      0.000000      2.632899 electrons x Angstroem
 Tr[quadrupol]    -80172.510061

 energy correction for charged system         0.000000 eV
 dipol+quadrupol energy correction           -0.112931 eV
 added-field ion interaction        -14.966180 eV  (added to PSCEN)


 eigenvalues of (default mixing * dielectric matrix)
  average eigenvalue GAMMA=   0.3074
  0.5324  0.0825

  free energy =  -0.625831801877E+03  energy without entropy=  -0.625412866707E+03


--------------------------------------------------------------------------------------------------------




--------------------------------------- Iteration     15(   4)  ---------------------------------------


    POTLOK:  cpu time    0.2557: real time    0.3183
    SETDIJ:  cpu time    0.1068: real time    0.1068
    EDDIAG:  cpu time    5.1960: real time    5.3787
  RMM-DIIS:  cpu time   15.6382: real time   16.2538
    ORTHCH:  cpu time    0.9701: real time    1.0263
       DOS:  cpu time    0.0194: real time    0.0194
    CHARGE:  cpu time    1.1577: real time    1.1607
    MIXING:  cpu time    0.0467: real time    0.0467
    --------------------------------------------
      LOOP:  cpu time   23.3907: real time   24.3106

 eigenvalue-minimisations  :  3276
 total energy-change (2. order) :-0.8250107E+00  (-0.1757992E+00)
 number of electron     576.0000129 magnetization 
 augmentation part      -10.3902317 magnetization 

 DIPCOR: dipole corrections for dipol
 direction  3 min pos     2,
 dipolmoment           0.000000      0.000000      2.525224 electrons x Angstroem
 Tr[quadrupol]    -80172.285715

 energy correction for charged system         0.000000 eV
 dipol+quadrupol energy correction           -0.103883 eV
 added-field ion interaction        -14.354122 eV  (added to PSCEN)


 eigenvalues of (default mixing * dielectric matrix)
  average eigenvalue GAMMA=   0.2774
  0.6337  0.0992  0.0992

  free energy =  -0.626656812602E+03  energy without entropy=  -0.626238135795E+03


--------------------------------------------------------------------------------------------------------




--------------------------------------- Iteration     15(   5)  ---------------------------------------


    POTLOK:  cpu time    0.2802: real time    0.2825
    SETDIJ:  cpu time    0.1994: real time    0.2469
    EDDIAG:  cpu time    5.2485: real time    5.6291
  RMM-DIIS:  cpu time   17.3209: real time   17.7256
    ORTHCH:  cpu time    0.9780: real time    0.9779
       DOS:  cpu time    0.0148: real time    0.0148
    CHARGE:  cpu time    0.8665: real time    0.9321
    MIXING:  cpu time    0.0095: real time    0.0095
    --------------------------------------------
      LOOP:  cpu time   24.9178: real time   25.8185

 eigenvalue-minimisations  :  3517
 total energy-change (2. order) :-0.2693235E+00  (-0.9832729E-01)
 number of electron     576.0000125 magnetization 
 augmentation part      -10.5317054 magnetization 

 DIPCOR: dipole corrections for dipol
 direction  3 min pos     2,
 dipolmoment           0.000000      0.000000      2.503847 electrons x Angstroem
 Tr[quadrupol]    -80172.227640

 energy correction for charged system         0.000000 eV
 dipol+quadrupol energy correction           -0.102131 eV
 added-field ion interaction        -14.232608 eV  (added to PSCEN)


 eigenvalues of (default mixing * dielectric matrix)
  average eigenvalue GAMMA=   0.2484
  0.6824  0.1127  0.1127  0.0857

  free energy =  -0.626926136077E+03  energy without entropy=  -0.626466335217E+03


--------------------------------------------------------------------------------------------------------




--------------------------------------- Iteration     15(   6)  ---------------------------------------


    POTLOK:  cpu time    0.2288: real time    0.2307
    SETDIJ:  cpu time    0.1093: real time    0.1092
    EDDIAG:  cpu time    5.1855: real time    5.3967
