<?xml version="1.0" encoding="ISO-8859-1"?>
<modeling>
 <generator>
  <i name="program" type="string">vasp </i>
  <i name="version" type="string">6.2.1  </i>
  <i name="subversion" type="string">16May21 (build Dec 23 2021 00:35:04) complex                          parallel </i>
  <i name="platform" type="string">LinuxIFC </i>
  <i name="date" type="string">2023 03 08 </i>
  <i name="time" type="string">12:29:35 </i>
 </generator>
 <incar>
  <i type="string" name="PREC">Normal</i>
  <i type="string" name="ALGO">Fast</i>
  <i type="int" name="ISPIN">     0</i>
  <i type="int" name="NELM">   150</i>
  <i type="int" name="IBRION">     2</i>
  <i name="EDIFF">      0.00000001</i>
  <i name="EDIFFG">     -0.01000000</i>
  <i type="int" name="NSW">   800</i>
  <i type="int" name="ISIF">     2</i>
  <i type="int" name="ISYM">     0</i>
  <i name="ENCUT">    400.00000000</i>
  <i type="string" name="LREAL">AUTO</i>
  <i type="int" name="ISMEAR">     0</i>
  <i name="SIGMA">      0.10000000</i>
  <i name="KSPACING">      0.50000000</i>
  <i type="logical" name="KGAMMA"> T  </i>
  <i type="int" name="NWRITE">     1</i>
  <i type="int" name="LMAXMIX">     6</i>
  <i type="logical" name="LWAVE"> F  </i>
  <i type="logical" name="LCHARG"> F  </i>
  <i type="logical" name="LASPH"> T  </i>
  <i type="string" name="GGA">PE</i>
  <i type="logical" name="LDIPOL"> T  </i>
  <i type="int" name="IDIPOL">     3</i>
  <v name="DIPOL">      0.51620000      0.50750000      0.50810000</v>
 </incar>
 <primitive_cell>
  <structure name="primitive_cell" >
   <crystal>
    <varray name="basis" >
     <v>     -17.60551920     -26.52027608       0.00000000 </v>
     <v>      -6.84445572     -24.67396948       0.00000000 </v>
     <v>       0.00000000       0.00000000      23.03144916 </v>
    </varray>
    <i name="volume">   5824.22022867 </i>
    <varray name="rec_basis" >
     <v>      -0.09757139       0.02706590       0.00000000 </v>
     <v>       0.10487248      -0.06961973       0.00000000 </v>
     <v>       0.00000000       0.00000000       0.04341889 </v>
    </varray>
   </crystal>
   <varray name="positions" >
    <v>       0.52676446       0.96252979       0.26051335 </v>
    <v>       0.24898669       0.35141867       0.39736286 </v>
    <v>       0.97120891       0.74030756       0.53421237 </v>
    <v>       0.69343113       0.12919645       0.67106188 </v>
    <v>       0.74898669       0.85141867       0.26051335 </v>
    <v>       0.49898664       0.10141872       0.32893812 </v>
    <v>       0.47120891       0.24030756       0.39736286 </v>
    <v>       0.22120886       0.49030761       0.46578763 </v>
    <v>       0.19343113       0.62919645       0.53421237 </v>
    <v>       0.94343108       0.87919650       0.60263714 </v>
    <v>       0.91565335       0.01808534       0.67106188 </v>
    <v>       0.66565331       0.26808539       0.73948665 </v>
    <v>       0.72120886       0.99030761       0.32893812 </v>
    <v>       0.44343108       0.37919650       0.46578763 </v>
    <v>       0.16565331       0.76808539       0.60263714 </v>
    <v>       0.88787553       0.15697428       0.73948665 </v>
    <v>       0.69343098       0.12919666       0.26051335 </v>
    <v>       0.41565320       0.51808555       0.39736286 </v>
    <v>       0.13787542       0.90697444       0.53421237 </v>
    <v>       0.86009765       0.29586333       0.67106188 </v>
    <v>       0.63787557       0.40697423       0.26051335 </v>
    <v>       0.38787553       0.65697428       0.32893812 </v>
    <v>       0.91565320       0.01808555       0.26051335 </v>
    <v>       0.36009780       0.79586312       0.39736286 </v>
    <v>       0.11009775       0.04586317       0.46578763 </v>
    <v>       0.63787542       0.40697444       0.39736286 </v>
    <v>       0.08232002       0.18475201       0.53421237 </v>
    <v>       0.83231997       0.43475206       0.60263714 </v>
    <v>       0.36009765       0.79586333       0.53421237 </v>
    <v>       0.80454224       0.57364090       0.67106188 </v>
    <v>       0.55454220       0.82364095       0.73948665 </v>
    <v>       0.08231987       0.18475222       0.67106188 </v>
    <v>       0.86009780       0.29586312       0.26051335 </v>
    <v>       0.61009775       0.54586317       0.32893812 </v>
    <v>       0.13787542       0.90697444       0.26051335 </v>
    <v>       0.58232002       0.68475201       0.39736286 </v>
    <v>       0.33231997       0.93475206       0.46578763 </v>
    <v>       0.86009765       0.29586333       0.39736286 </v>
    <v>       0.30454224       0.07364090       0.53421237 </v>
    <v>       0.05454220       0.32364095       0.60263714 </v>
    <v>       0.58231987       0.68475222       0.53421237 </v>
    <v>       0.02676446       0.46252979       0.67106188 </v>
    <v>       0.77676442       0.71252984       0.73948665 </v>
    <v>       0.30454209       0.07364111       0.67106188 </v>
    <v>       0.58231987       0.68475222       0.26051335 </v>
    <v>       0.30454209       0.07364111       0.39736286 </v>
    <v>       0.02676431       0.46253000       0.53421237 </v>
    <v>       0.74898654       0.85141888       0.67106188 </v>
    <v>       0.08232002       0.18475201       0.26051335 </v>
    <v>       0.83231997       0.43475206       0.32893812 </v>
    <v>       0.36009765       0.79586333       0.26051335 </v>
    <v>       0.80454224       0.57364090       0.39736286 </v>
    <v>       0.55454219       0.82364095       0.46578763 </v>
    <v>       0.08231987       0.18475222       0.39736286 </v>
    <v>       0.52676446       0.96252979       0.53421237 </v>
    <v>       0.27676442       0.21252984       0.60263714 </v>
    <v>       0.80454209       0.57364111       0.53421237 </v>
    <v>       0.24898669       0.35141867       0.67106188 </v>
    <v>       0.99898664       0.60141872       0.73948665 </v>
    <v>       0.52676431       0.96253000       0.67106188 </v>
    <v>       0.80454209       0.57364111       0.26051335 </v>
    <v>       0.52676431       0.96253000       0.39736286 </v>
    <v>       0.24898654       0.35141888       0.53421237 </v>
    <v>       0.97120876       0.74030777       0.67106188 </v>
    <v>       0.30454224       0.07364090       0.26051335 </v>
    <v>       0.05454219       0.32364095       0.32893812 </v>
    <v>       0.02676446       0.46252979       0.39736286 </v>
    <v>       0.77676442       0.71252984       0.46578763 </v>
    <v>       0.74898669       0.85141867       0.53421237 </v>
    <v>       0.49898664       0.10141872       0.60263714 </v>
    <v>       0.47120891       0.24030756       0.67106188 </v>
    <v>       0.22120886       0.49030761       0.73948665 </v>
    <v>       0.02676431       0.46253000       0.26051335 </v>
    <v>       0.74898654       0.85141888       0.39736286 </v>
    <v>       0.47120876       0.24030777       0.53421237 </v>
    <v>       0.19343098       0.62919666       0.67106188 </v>
    <v>       0.27676442       0.21252984       0.32893812 </v>
    <v>       0.99898664       0.60141872       0.46578763 </v>
    <v>       0.72120886       0.99030761       0.60263714 </v>
    <v>       0.44343108       0.37919650       0.73948665 </v>
    <v>       0.97120891       0.74030756       0.26051335 </v>
    <v>       0.24898654       0.35141888       0.26051335 </v>
    <v>       0.69343113       0.12919645       0.39736286 </v>
    <v>       0.97120876       0.74030777       0.39736286 </v>
    <v>       0.41565335       0.51808534       0.53421237 </v>
    <v>       0.69343098       0.12919666       0.53421237 </v>
    <v>       0.13787557       0.90697423       0.67106188 </v>
    <v>       0.41565320       0.51808555       0.67106188 </v>
    <v>       0.19343113       0.62919645       0.26051335 </v>
    <v>       0.94343108       0.87919650       0.32893812 </v>
    <v>       0.47120876       0.24030777       0.26051335 </v>
    <v>       0.91565335       0.01808534       0.39736286 </v>
    <v>       0.66565331       0.26808539       0.46578763 </v>
    <v>       0.19343098       0.62919666       0.39736286 </v>
    <v>       0.63787557       0.40697423       0.53421237 </v>
    <v>       0.38787553       0.65697428       0.60263714 </v>
    <v>       0.91565320       0.01808555       0.53421237 </v>
    <v>       0.36009780       0.79586312       0.67106188 </v>
    <v>       0.11009775       0.04586317       0.73948665 </v>
    <v>       0.63787542       0.40697444       0.67106188 </v>
    <v>       0.41565335       0.51808534       0.26051335 </v>
    <v>       0.16565331       0.76808539       0.32893812 </v>
    <v>       0.13787557       0.90697423       0.39736286 </v>
    <v>       0.88787553       0.15697428       0.46578763 </v>
    <v>       0.86009780       0.29586312       0.53421237 </v>
    <v>       0.61009775       0.54586317       0.60263714 </v>
    <v>       0.58232002       0.68475201       0.67106188 </v>
    <v>       0.33231997       0.93475206       0.73948665 </v>
    <v>       0.38787554       0.15697427       0.32893812 </v>
    <v>       0.11009777       0.54586316       0.46578763 </v>
    <v>       0.83231999       0.93475205       0.60263714 </v>
    <v>       0.55454221       0.32364094       0.73948665 </v>
    <v>       0.61009777       0.04586316       0.32893812 </v>
    <v>       0.33231999       0.43475205       0.46578763 </v>
    <v>       0.05454221       0.82364094       0.60263714 </v>
    <v>       0.77676443       0.21252983       0.73948665 </v>
    <v>       0.49898665       0.60141872       0.32893812 </v>
    <v>       0.22120888       0.99030761       0.46578763 </v>
    <v>       0.94343110       0.37919649       0.60263714 </v>
    <v>       0.66565332       0.76808538       0.73948665 </v>
    <v>       0.72120888       0.49030761       0.32893812 </v>
    <v>       0.44343110       0.87919649       0.46578763 </v>
    <v>       0.16565332       0.26808538       0.60263714 </v>
    <v>       0.88787554       0.65697427       0.73948665 </v>
    <v>       0.94343110       0.37919649       0.32893812 </v>
    <v>       0.66565332       0.76808538       0.46578763 </v>
    <v>       0.38787554       0.15697427       0.60263714 </v>
    <v>       0.11009777       0.54586316       0.73948665 </v>
    <v>       0.16565332       0.26808538       0.32893812 </v>
    <v>       0.88787554       0.65697427       0.46578763 </v>
    <v>       0.61009777       0.04586316       0.60263714 </v>
    <v>       0.33231999       0.43475205       0.73948665 </v>
    <v>       0.83231999       0.93475205       0.32893812 </v>
    <v>       0.55454221       0.32364094       0.46578763 </v>
    <v>       0.27676443       0.71252983       0.60263714 </v>
    <v>       0.99898666       0.10141872       0.73948665 </v>
    <v>       0.05454221       0.82364094       0.32893812 </v>
    <v>       0.77676443       0.21252983       0.46578763 </v>
    <v>       0.49898666       0.60141872       0.60263714 </v>
    <v>       0.22120888       0.99030761       0.73948665 </v>
    <v>       0.27676443       0.71252983       0.32893812 </v>
    <v>       0.99898665       0.10141872       0.46578763 </v>
    <v>       0.72120888       0.49030761       0.60263714 </v>
    <v>       0.44343110       0.87919649       0.73948665 </v>
    <v>       0.88787553       0.15697428       0.60263712 </v>
    <v>       0.61009775       0.54586317       0.73948663 </v>
    <v>       0.44343097       0.37919666       0.32893810 </v>
    <v>       0.16565320       0.76808554       0.46578761 </v>
    <v>       0.11009775       0.04586317       0.60263712 </v>
    <v>       0.83231997       0.43475206       0.73948663 </v>
    <v>       0.66565320       0.26808554       0.32893810 </v>
    <v>       0.38787542       0.65697443       0.46578761 </v>
    <v>       0.33231997       0.93475206       0.60263712 </v>
    <v>       0.05454220       0.32364094       0.73948663 </v>
    <v>       0.88787542       0.15697443       0.32893810 </v>
    <v>       0.61009764       0.54586332       0.46578761 </v>
    <v>       0.77676442       0.71252983       0.60263712 </v>
    <v>       0.49898664       0.10141872       0.73948663 </v>
    <v>       0.55454220       0.82364094       0.60263712 </v>
    <v>       0.27676442       0.21252983       0.73948663 </v>
    <v>       0.11009764       0.04586332       0.32893810 </v>
    <v>       0.83231986       0.43475221       0.46578761 </v>
    <v>       0.99898664       0.60141872       0.60263712 </v>
    <v>       0.72120886       0.99030761       0.73948663 </v>
    <v>       0.55454209       0.82364110       0.32893810 </v>
    <v>       0.27676431       0.21252999       0.46578761 </v>
    <v>       0.33231986       0.93475221       0.32893810 </v>
    <v>       0.05454209       0.32364110       0.46578761 </v>
    <v>       0.22120886       0.49030761       0.60263712 </v>
    <v>       0.94343109       0.87919650       0.73948663 </v>
    <v>       0.77676431       0.71252999       0.32893810 </v>
    <v>       0.49898653       0.10141888       0.46578761 </v>
    <v>       0.44343109       0.37919650       0.60263712 </v>
    <v>       0.16565331       0.76808539       0.73948663 </v>
    <v>       0.99898653       0.60141888       0.32893810 </v>
    <v>       0.72120875       0.99030777       0.46578761 </v>
    <v>       0.66565331       0.26808539       0.60263712 </v>
    <v>       0.38787553       0.65697428       0.73948663 </v>
    <v>       0.22120875       0.49030777       0.32893810 </v>
    <v>       0.94343097       0.87919666       0.46578761 </v>
   </varray>
  </structure>
  <varray name="primitive_index" >
   <v type="int" >        1 </v>
   <v type="int" >        2 </v>
   <v type="int" >        3 </v>
   <v type="int" >        4 </v>
   <v type="int" >        5 </v>
   <v type="int" >        6 </v>
   <v type="int" >        7 </v>
   <v type="int" >        8 </v>
   <v type="int" >        9 </v>
   <v type="int" >       10 </v>
   <v type="int" >       11 </v>
   <v type="int" >       12 </v>
   <v type="int" >       13 </v>
   <v type="int" >       14 </v>
   <v type="int" >       15 </v>
   <v type="int" >       16 </v>
   <v type="int" >       17 </v>
   <v type="int" >       18 </v>
   <v type="int" >       19 </v>
   <v type="int" >       20 </v>
   <v type="int" >       21 </v>
   <v type="int" >       22 </v>
   <v type="int" >       23 </v>
   <v type="int" >       24 </v>
   <v type="int" >       25 </v>
   <v type="int" >       26 </v>
   <v type="int" >       27 </v>
   <v type="int" >       28 </v>
   <v type="int" >       29 </v>
   <v type="int" >       30 </v>
   <v type="int" >       31 </v>
   <v type="int" >       32 </v>
   <v type="int" >       33 </v>
   <v type="int" >       34 </v>
   <v type="int" >       35 </v>
   <v type="int" >       36 </v>
   <v type="int" >       37 </v>
   <v type="int" >       38 </v>
   <v type="int" >       39 </v>
   <v type="int" >       40 </v>
   <v type="int" >       41 </v>
   <v type="int" >       42 </v>
   <v type="int" >       43 </v>
   <v type="int" >       44 </v>
   <v type="int" >       45 </v>
   <v type="int" >       46 </v>
   <v type="int" >       47 </v>
   <v type="int" >       48 </v>
   <v type="int" >       49 </v>
   <v type="int" >       50 </v>
   <v type="int" >       51 </v>
   <v type="int" >       52 </v>
   <v type="int" >       53 </v>
   <v type="int" >       54 </v>
   <v type="int" >       55 </v>
   <v type="int" >       56 </v>
   <v type="int" >       57 </v>
   <v type="int" >       58 </v>
   <v type="int" >       59 </v>
   <v type="int" >       60 </v>
   <v type="int" >       61 </v>
   <v type="int" >       62 </v>
   <v type="int" >       63 </v>
   <v type="int" >       64 </v>
   <v type="int" >       65 </v>
   <v type="int" >       66 </v>
   <v type="int" >       67 </v>
   <v type="int" >       68 </v>
   <v type="int" >       69 </v>
   <v type="int" >       70 </v>
   <v type="int" >       71 </v>
   <v type="int" >       72 </v>
   <v type="int" >       73 </v>
   <v type="int" >       74 </v>
   <v type="int" >       75 </v>
   <v type="int" >       76 </v>
   <v type="int" >       77 </v>
   <v type="int" >       78 </v>
   <v type="int" >       79 </v>
   <v type="int" >       80 </v>
   <v type="int" >       81 </v>
   <v type="int" >       82 </v>
   <v type="int" >       83 </v>
   <v type="int" >       84 </v>
   <v type="int" >       85 </v>
   <v type="int" >       86 </v>
   <v type="int" >       87 </v>
   <v type="int" >       88 </v>
   <v type="int" >       89 </v>
   <v type="int" >       90 </v>
   <v type="int" >       91 </v>
   <v type="int" >       92 </v>
   <v type="int" >       93 </v>
   <v type="int" >       94 </v>
   <v type="int" >       95 </v>
   <v type="int" >       96 </v>
   <v type="int" >       97 </v>
   <v type="int" >       98 </v>
   <v type="int" >       99 </v>
   <v type="int" >      100 </v>
   <v type="int" >      101 </v>
   <v type="int" >      102 </v>
   <v type="int" >      103 </v>
   <v type="int" >      104 </v>
   <v type="int" >      105 </v>
   <v type="int" >      106 </v>
   <v type="int" >      107 </v>
   <v type="int" >      108 </v>
   <v type="int" >      109 </v>
   <v type="int" >      110 </v>
   <v type="int" >      111 </v>
   <v type="int" >      112 </v>
   <v type="int" >      113 </v>
   <v type="int" >      114 </v>
   <v type="int" >      115 </v>
   <v type="int" >      116 </v>
   <v type="int" >      117 </v>
   <v type="int" >      118 </v>
   <v type="int" >      119 </v>
   <v type="int" >      120 </v>
   <v type="int" >      121 </v>
   <v type="int" >      122 </v>
   <v type="int" >      123 </v>
   <v type="int" >      124 </v>
   <v type="int" >      125 </v>
   <v type="int" >      126 </v>
   <v type="int" >      127 </v>
   <v type="int" >      128 </v>
   <v type="int" >      129 </v>
   <v type="int" >      130 </v>
   <v type="int" >      131 </v>
   <v type="int" >      132 </v>
   <v type="int" >      133 </v>
   <v type="int" >      134 </v>
   <v type="int" >      135 </v>
   <v type="int" >      136 </v>
   <v type="int" >      137 </v>
   <v type="int" >      138 </v>
   <v type="int" >      139 </v>
   <v type="int" >      140 </v>
   <v type="int" >      141 </v>
   <v type="int" >      142 </v>
   <v type="int" >      143 </v>
   <v type="int" >      144 </v>
   <v type="int" >      145 </v>
   <v type="int" >      146 </v>
   <v type="int" >      147 </v>
   <v type="int" >      148 </v>
   <v type="int" >      149 </v>
   <v type="int" >      150 </v>
   <v type="int" >      151 </v>
   <v type="int" >      152 </v>
   <v type="int" >      153 </v>
   <v type="int" >      154 </v>
   <v type="int" >      155 </v>
   <v type="int" >      156 </v>
   <v type="int" >      157 </v>
   <v type="int" >      158 </v>
   <v type="int" >      159 </v>
   <v type="int" >      160 </v>
   <v type="int" >      161 </v>
   <v type="int" >      162 </v>
   <v type="int" >      163 </v>
   <v type="int" >      164 </v>
   <v type="int" >      165 </v>
   <v type="int" >      166 </v>
   <v type="int" >      167 </v>
   <v type="int" >      168 </v>
   <v type="int" >      169 </v>
   <v type="int" >      170 </v>
   <v type="int" >      171 </v>
   <v type="int" >      172 </v>
   <v type="int" >      173 </v>
   <v type="int" >      174 </v>
   <v type="int" >      175 </v>
   <v type="int" >      176 </v>
   <v type="int" >      177 </v>
   <v type="int" >      178 </v>
   <v type="int" >      179 </v>
   <v type="int" >      180 </v>
  </varray>
 </primitive_cell>
 <kpoints>
  <generation param="Gamma">
   <v type="int" name="divisions">       2        2        1 </v>
   <v name="usershift">      0.00000000       0.00000000       0.00000000 </v>
   <v name="genvec1">      0.50000000       0.00000000       0.00000000 </v>
   <v name="genvec2">      0.00000000       0.50000000       0.00000000 </v>
   <v name="genvec3">      0.00000000       0.00000000       1.00000000 </v>
   <v name="shift">      0.00000000       0.00000000       0.00000000 </v>
  </generation>
  <varray name="kpointlist" >
   <v>       0.00000000       0.00000000       0.00000000 </v>
   <v>       0.50000000       0.00000000       0.00000000 </v>
   <v>       0.00000000       0.50000000       0.00000000 </v>
   <v>       0.50000000       0.50000000       0.00000000 </v>
  </varray>
  <varray name="weights" >
   <v>       0.25000000 </v>
   <v>       0.25000000 </v>
   <v>       0.25000000 </v>
   <v>       0.25000000 </v>
  </varray>
 </kpoints>
 <parameters>
  <separator name="general" >
   <i type="string" name="SYSTEM">unknown system</i>
   <i type="logical" name="LCOMPAT"> F  </i>
  </separator>
  <separator name="electronic" >
   <i type="string" name="PREC">normal</i>
   <i name="ENMAX">    400.00000000</i>
   <i name="ENAUG">    605.39200000</i>
   <i name="EDIFF">      0.00000001</i>
   <i type="int" name="IALGO">    68</i>
   <i type="int" name="IWAVPR">    11</i>
   <i type="int" name="NBANDS">   384</i>
   <i type="int" name="NBANDSLOW">    -1</i>
   <i type="int" name="NBANDSHIGH">    -1</i>
   <i name="NELECT">    576.00000000</i>
   <i type="int" name="TURBO">     0</i>
   <i type="int" name="IRESTART">     0</i>
   <i type="int" name="NREBOOT">     0</i>
   <i type="int" name="NMIN">     0</i>
   <i name="EREF">      0.00000000</i>
   <separator name="electronic smearing" >
    <i type="int" name="ISMEAR">     0</i>
    <i name="SIGMA">      0.10000000</i>
    <i name="KSPACING">      0.50000000</i>
    <i type="logical" name="KGAMMA"> T  </i>
    <i type="logical" name="KBLOWUP"> T  </i>
   </separator>
   <separator name="electronic projectors" >
    <i type="logical" name="LREAL"> T  </i>
    <v name="ROPT">     -0.00050000     -0.00050000     -0.00050000</v>
    <i type="int" name="LMAXPAW">  -100</i>
    <i type="int" name="LMAXMIX">     6</i>
    <i type="logical" name="NLSPLINE"> F  </i>
   </separator>
   <separator name="electronic startup" >
    <i type="int" name="ISTART">     0</i>
    <i type="int" name="ICHARG">     2</i>
    <i type="int" name="INIWAV">     1</i>
   </separator>
   <separator name="electronic spin" >
    <i type="int" name="ISPIN">     1</i>
    <i type="logical" name="LNONCOLLINEAR"> F  </i>
    <v name="MAGMOM">      1.00000000      1.00000000      1.00000000      1.00000000      1.00000000      1.00000000      1.00000000      1.00000000      1.00000000      1.00000000      1.00000000      1.00000000      1.00000000      1.00000000      1.00000000      1.00000000      1.00000000      1.00000000      1.00000000      1.00000000
      1.00000000      1.00000000      1.00000000      1.00000000      1.00000000      1.00000000      1.00000000      1.00000000      1.00000000      1.00000000      1.00000000      1.00000000      1.00000000      1.00000000      1.00000000      1.00000000      1.00000000      1.00000000      1.00000000      1.00000000
      1.00000000      1.00000000      1.00000000      1.00000000      1.00000000      1.00000000      1.00000000      1.00000000      1.00000000      1.00000000      1.00000000      1.00000000      1.00000000      1.00000000      1.00000000      1.00000000      1.00000000      1.00000000      1.00000000      1.00000000
      1.00000000      1.00000000      1.00000000      1.00000000      1.00000000      1.00000000      1.00000000      1.00000000      1.00000000      1.00000000      1.00000000      1.00000000      1.00000000      1.00000000      1.00000000      1.00000000      1.00000000      1.00000000      1.00000000      1.00000000
      1.00000000      1.00000000      1.00000000      1.00000000      1.00000000      1.00000000      1.00000000      1.00000000      1.00000000      1.00000000      1.00000000      1.00000000      1.00000000      1.00000000      1.00000000      1.00000000      1.00000000      1.00000000      1.00000000      1.00000000
      1.00000000      1.00000000      1.00000000      1.00000000      1.00000000      1.00000000      1.00000000      1.00000000      1.00000000      1.00000000      1.00000000      1.00000000      1.00000000      1.00000000      1.00000000      1.00000000      1.00000000      1.00000000      1.00000000      1.00000000
      1.00000000      1.00000000      1.00000000      1.00000000      1.00000000      1.00000000      1.00000000      1.00000000      1.00000000      1.00000000      1.00000000      1.00000000      1.00000000      1.00000000      1.00000000      1.00000000      1.00000000      1.00000000      1.00000000      1.00000000
      1.00000000      1.00000000      1.00000000      1.00000000      1.00000000      1.00000000      1.00000000      1.00000000      1.00000000      1.00000000      1.00000000      1.00000000      1.00000000      1.00000000      1.00000000      1.00000000      1.00000000      1.00000000      1.00000000      1.00000000
      1.00000000      1.00000000      1.00000000      1.00000000      1.00000000      1.00000000      1.00000000      1.00000000      1.00000000      1.00000000      1.00000000      1.00000000      1.00000000      1.00000000      1.00000000      1.00000000      1.00000000      1.00000000      1.00000000      1.00000000
</v>
    <i name="NUPDOWN">     -1.00000000</i>
    <i type="logical" name="LSORBIT"> F  </i>
    <v name="SAXIS">      0.00000000      0.00000000      1.00000000</v>
    <i type="logical" name="LSPIRAL"> F  </i>
    <v name="QSPIRAL">      0.00000000      0.00000000      0.00000000</v>
    <i type="logical" name="LZEROZ"> F  </i>
   </separator>
   <separator name="electronic exchange-correlation" >
    <i type="logical" name="LASPH"> T  </i>
    <i type="logical" name="LMETAGGA"> F  </i>
   </separator>
   <separator name="electronic convergence" >
    <i type="int" name="NELM">   150</i>
    <i type="int" name="NELMDL">     0</i>
    <i type="int" name="NELMIN">     2</i>
    <i name="ENINI">    400.00000000</i>
    <separator name="electronic convergence detail" >
     <i type="logical" name="LDIAG"> T  </i>
     <i type="logical" name="LSUBROT"> F  </i>
     <i name="WEIMIN">      0.00100000</i>
     <i name="EBREAK">      0.00000000</i>
     <i name="DEPER">      0.30000000</i>
     <i type="int" name="NRMM">     4</i>
     <i name="TIME">      0.40000000</i>
    </separator>
   </separator>
   <separator name="electronic mixer" >
    <i name="AMIX">      0.40000000</i>
    <i name="BMIX">      1.00000000</i>
    <i name="AMIN">      0.10000000</i>
    <i name="AMIX_MAG">      1.60000000</i>
    <i name="BMIX_MAG">      1.00000000</i>
    <separator name="electronic mixer details" >
     <i type="int" name="IMIX">     4</i>
     <i type="logical" name="MIXFIRST"> F  </i>
     <i type="int" name="MAXMIX">   -45</i>
     <i name="WC">    100.00000000</i>
     <i type="int" name="INIMIX">     1</i>
     <i type="int" name="MIXPRE">     1</i>
     <i type="int" name="MREMOVE">     5</i>
    </separator>
   </separator>
   <separator name="electronic dipolcorrection" >
    <i type="logical" name="LDIPOL"> T  </i>
    <i type="logical" name="LMONO"> F  </i>
    <i type="int" name="IDIPOL">     3</i>
    <i name="EPSILON">      1.00000000</i>
    <v name="DIPOL">      0.51620000      0.50750000      0.50810000</v>
    <i name="EFIELD">      0.00000000</i>
   </separator>
  </separator>
  <separator name="grids" >
   <i type="int" name="NGX">   160</i>
   <i type="int" name="NGY">   126</i>
   <i type="int" name="NGZ">   120</i>
   <i type="int" name="NGXF">   320</i>
   <i type="int" name="NGYF">   252</i>
   <i type="int" name="NGZF">   240</i>
   <i type="logical" name="ADDGRID"> F  </i>
  </separator>
  <separator name="ionic" >
   <i type="int" name="NSW">   800</i>
   <i type="int" name="IBRION">     2</i>
   <i type="int" name="MDALGO">     0</i>
   <i type="int" name="ISIF">     2</i>
   <i name="PSTRESS">      0.00000000</i>
   <i name="EDIFFG">     -0.01000000</i>
   <i type="int" name="NFREE">     1</i>
   <i name="POTIM">      0.50000000</i>
   <i name="SMASS">     -3.00000000</i>
   <i name="SCALEE">      1.00000000</i>
  </separator>
  <separator name="ionic md" >
   <i name="TEBEG">      0.00010000</i>
   <i name="TEEND">      0.00010000</i>
   <i type="int" name="NBLOCK">     1</i>
   <i type="int" name="KBLOCK">   800</i>
   <i type="int" name="NPACO">   256</i>
   <i name="APACO">     16.00000000</i>
  </separator>
  <separator name="symmetry" >
   <i type="int" name="ISYM">     0</i>
   <i name="SYMPREC">      0.00001000</i>
  </separator>
  <separator name="dos" >
   <i type="int" name="LORBIT">     0</i>
   <v name="RWIGS">     -1.00000000     -1.00000000     -1.00000000</v>
   <i type="int" name="NEDOS">   301</i>
   <i name="EMIN">     10.00000000</i>
   <i name="EMAX">    -10.00000000</i>
   <i name="EFERMI">      0.00000000</i>
  </separator>
  <separator name="writing" >
   <i type="int" name="NWRITE">     1</i>
   <i type="logical" name="LWAVE"> F  </i>
   <i type="logical" name="LDOWNSAMPLE"> F  </i>
   <i type="logical" name="LCHARG"> F  </i>
   <i type="logical" name="LPARD"> F  </i>
   <i type="logical" name="LVTOT"> F  </i>
   <i type="logical" name="LVHAR"> F  </i>
   <i type="logical" name="LELF"> F  </i>
   <i type="logical" name="LOPTICS"> F  </i>
   <v name="STM">      0.00000000      0.00000000      0.00000000      0.00000000      0.00000000      0.00000000      0.00000000</v>
  </separator>
  <separator name="performance" >
   <i type="int" name="NPAR">     8</i>
   <i type="int" name="NSIM">     4</i>
   <i type="int" name="NBLK">    -1</i>
   <i type="logical" name="LPLANE"> T  </i>
   <i type="logical" name="LSCALAPACK"> T  </i>
   <i type="logical" name="LSCAAWARE"> F  </i>
   <i type="logical" name="LSCALU"> F  </i>
   <i type="logical" name="LASYNC"> F  </i>
   <i type="logical" name="LORBITALREAL"> F  </i>
  </separator>
  <separator name="miscellaneous" >
   <i type="int" name="IDIOT">     3</i>
   <i type="int" name="PHON_NSTRUCT">    -1</i>
   <i type="logical" name="LMUSIC"> F  </i>
   <v name="POMASS">     22.99000000     16.00000000     35.45300000</v>
   <v name="DARWINR">      0.00000000      0.00000000      0.00000000</v>
   <v name="DARWINV">      1.00000000      1.00000000      1.00000000</v>
   <i type="logical" name="LCORR"> T  </i>
  </separator>
  <i type="logical" name="GGA_COMPAT"> T  </i>
  <i type="logical" name="LBERRY"> F  </i>
  <i type="int" name="ICORELEVEL">     0</i>
  <i type="logical" name="LDAU"> F  </i>
  <i type="int" name="I_CONSTRAINED_M">     0</i>
  <separator name="electronic exchange-correlation" >
   <i type="string" name="GGA">PE</i>
   <i type="int" name="VOSKOWN">     0</i>
   <i type="logical" name="LHFCALC"> F  </i>
   <i type="string" name="PRECFOCK"></i>
   <i type="logical" name="LSYMGRAD"> F  </i>
   <i type="logical" name="LHFONE"> F  </i>
   <i type="logical" name="LRHFCALC"> F  </i>
   <i type="logical" name="LTHOMAS"> F  </i>
   <i type="logical" name="LMODELHF"> F  </i>
   <i type="logical" name="LFOCKACE"> F  </i>
   <i name="ENCUT4O">     -1.00000000</i>
   <i type="int" name="EXXOEP">     0</i>
   <i type="int" name="FOURORBIT">     0</i>
   <i name="AEXX">      0.00000000</i>
   <i name="HFALPHA">      0.00000000</i>
   <i name="MCALPHA">      0.00000000</i>
   <i name="ALDAX">      1.00000000</i>
   <i name="AGGAX">      1.00000000</i>
   <i name="ALDAC">      1.00000000</i>
   <i name="AGGAC">      1.00000000</i>
   <i type="int" name="NKREDX">     1</i>
   <i type="int" name="NKREDY">     1</i>
   <i type="int" name="NKREDZ">     1</i>
   <i type="logical" name="SHIFTRED"> F  </i>
   <i type="logical" name="ODDONLY"> F  </i>
   <i type="logical" name="EVENONLY"> F  </i>
   <i type="int" name="LMAXFOCK">     0</i>
   <i type="int" name="NMAXFOCKAE">     0</i>
   <i type="logical" name="LFOCKAEDFT"> F  </i>
   <i name="HFSCREEN">      0.00000000</i>
   <i name="HFSCREENC">      0.00000000</i>
   <i type="int" name="NBANDSGWLOW">     0</i>
  </separator>
  <separator name="vdW DFT" >
   <i type="logical" name="LUSE_VDW"> F  </i>
   <i name="Zab_VDW">     -0.84910000</i>
   <i name="PARAM1">      0.12340000</i>
   <i name="PARAM2">      1.00000000</i>
   <i name="PARAM3">      0.00000000</i>
  </separator>
  <separator name="model GW" >
   <i type="int" name="MODEL_GW">     0</i>
   <i name="MODEL_EPS0">     19.41406743</i>
   <i name="MODEL_ALPHA">      1.00000000</i>
  </separator>
  <separator name="linear response parameters" >
   <i type="logical" name="LEPSILON"> F  </i>
   <i type="logical" name="LRPA"> F  </i>
   <i type="logical" name="LNABLA"> F  </i>
   <i type="logical" name="LVEL"> F  </i>
   <i type="int" name="KINTER">     0</i>
   <i name="CSHIFT">      0.10000000</i>
   <i name="OMEGAMAX">     -1.00000000</i>
   <i name="DEG_THRESHOLD">      0.00200000</i>
   <i name="RTIME">     -0.10000000</i>
   <i name="WPLASMAI">      0.00000000</i>
   <v name="DFIELD">      0.00000000      0.00000000      0.00000000</v>
   <v name="WPLASMA">      0.00000000      0.00000000      0.00000000      0.00000000      0.00000000      0.00000000      0.00000000      0.00000000      0.00000000</v>
  </separator>
  <separator name="orbital magnetization" >
   <i type="logical" name="NUCIND"> F  </i>
   <v name="MAGPOS">      0.00000000      0.00000000      0.00000000</v>
   <i type="logical" name="LNICSALL"> T  </i>
   <i type="logical" name="ORBITALMAG"> F  </i>
   <i type="logical" name="LMAGBLOCH"> F  </i>
   <i type="logical" name="LCHIMAG"> F  </i>
   <i type="logical" name="LGAUGE"> T  </i>
   <i type="int" name="MAGATOM">     0</i>
   <v name="MAGDIPOL">      0.00000000      0.00000000      0.00000000</v>
   <v name="AVECCONST">      0.00000000      0.00000000      0.00000000</v>
  </separator>
  <separator name="response functions" >
   <i type="logical" name="LFINITE_TEMPERATURE"> F  </i>
   <i type="logical" name="LADDER"> F  </i>
   <i type="logical" name="LRPAFORCE"> F  </i>
   <i type="logical" name="LFXC"> F  </i>
   <i type="logical" name="LHARTREE"> T  </i>
   <i type="int" name="IBSE">     0</i>
   <v type="int" name="KPOINT">    -1     0     0     0</v>
   <i type="logical" name="LTCTC"> F  </i>
   <i type="logical" name="LTCTE"> F  </i>
   <i type="logical" name="LTETE"> F  </i>
   <i type="logical" name="LTRIPLET"> F  </i>
   <i type="logical" name="LFXCEPS"> F  </i>
   <i type="logical" name="LFXHEG"> F  </i>
   <i type="int" name="NATURALO">     2</i>
   <i type="logical" name="LHOLEGF"> F  </i>
   <i type="logical" name="L2ORDER"> F  </i>
   <i type="logical" name="LDMP1"> F  </i>
   <i type="logical" name="LMP2LT"> F  </i>
   <i type="logical" name="LSMP2LT"> F  </i>
   <i type="logical" name="LGWLF"> F  </i>
   <i name="ENCUTGW">     -2.00000000</i>
   <i name="ENCUTGWSOFT">     -2.00000000</i>
   <i name="ENCUTLF">     -1.00000000</i>
   <i type="logical" name="LESF_SPLINES"> F  </i>
   <i type="int" name="LMAXMP2">    -1</i>
   <i name="SCISSOR">      0.00000000</i>
   <i type="int" name="NOMEGA">     0</i>
   <i type="int" name="NOMEGAR">     0</i>
   <i type="int" name="NBANDSGW">    -1</i>
   <i type="int" name="NBANDSO">    -1</i>
   <i type="int" name="NBANDSV">    -1</i>
   <i type="int" name="NELM">   150</i>
   <i type="int" name="NELMHF">     1</i>
   <i type="int" name="DIM">     3</i>
   <i type="int" name="IESPILON">     4</i>
   <i type="int" name="ANTIRES">     0</i>
   <i name="OMEGAMAX">    -30.00000000</i>
   <i name="OMEGAMIN">    -30.00000000</i>
   <i name="OMEGATL">   -200.00000000</i>
   <i type="int" name="OMEGAGRID">     0</i>
   <i name="CSHIFT">     -0.10000000</i>
   <i type="logical" name="LSELFENERGY"> F  </i>
   <i type="logical" name="LSPECTRAL"> F  </i>
   <i type="logical" name="LSPECTRALGW"> F  </i>
   <i type="logical" name="LSINGLES"> F  </i>
   <i type="logical" name="LFERMIGW"> F  </i>
   <i type="logical" name="ODDONLYGW"> F  </i>
   <i type="logical" name="EVENONLYGW"> F  </i>
   <i type="int" name="NKREDLFX">     1</i>
   <i type="int" name="NKREDLFY">     1</i>
   <i type="int" name="NKREDLFZ">     1</i>
   <i type="int" name="MAXMEM">  2800</i>
   <i type="int" name="TELESCOPE">     0</i>
   <i type="int" name="NTAUPAR">    -1</i>
   <i type="int" name="NOMEGAPAR">    -1</i>
   <i name="DAMP_NEWTON">      0.80000001</i>
   <i name="LAMBDA">      1.00000000</i>
  </separator>
  <separator name="External order field" >
   <i name="OFIELD_KAPPA">      0.00000000</i>
   <v name="OFIELD_K">      0.00000000      0.00000000      0.00000000</v>
   <i name="OFIELD_Q6_NEAR">      0.00000000</i>
   <i name="OFIELD_Q6_FAR">      0.00000000</i>
   <i name="OFIELD_A">      0.00000000</i>
  </separator>
 </parameters>
 <atominfo>
  <atoms>     180 </atoms>
  <types>       3 </types>
  <array name="atoms" >
   <dimension dim="1">ion</dimension>
   <field type="string">element</field>
   <field type="int">atomtype</field>
   <set>
    <rc><c>Na</c><c>   1</c></rc>
    <rc><c>Na</c><c>   1</c></rc>
    <rc><c>Na</c><c>   1</c></rc>
    <rc><c>Na</c><c>   1</c></rc>
    <rc><c>Na</c><c>   1</c></rc>
    <rc><c>Na</c><c>   1</c></rc>
    <rc><c>Na</c><c>   1</c></rc>
    <rc><c>Na</c><c>   1</c></rc>
    <rc><c>Na</c><c>   1</c></rc>
    <rc><c>Na</c><c>   1</c></rc>
    <rc><c>Na</c><c>   1</c></rc>
    <rc><c>Na</c><c>   1</c></rc>
    <rc><c>Na</c><c>   1</c></rc>
    <rc><c>Na</c><c>   1</c></rc>
    <rc><c>Na</c><c>   1</c></rc>
    <rc><c>Na</c><c>   1</c></rc>
    <rc><c>Na</c><c>   1</c></rc>
    <rc><c>Na</c><c>   1</c></rc>
    <rc><c>Na</c><c>   1</c></rc>
    <rc><c>Na</c><c>   1</c></rc>
    <rc><c>Na</c><c>   1</c></rc>
    <rc><c>Na</c><c>   1</c></rc>
    <rc><c>Na</c><c>   1</c></rc>
    <rc><c>Na</c><c>   1</c></rc>
    <rc><c>Na</c><c>   1</c></rc>
    <rc><c>Na</c><c>   1</c></rc>
    <rc><c>Na</c><c>   1</c></rc>
    <rc><c>Na</c><c>   1</c></rc>
    <rc><c>Na</c><c>   1</c></rc>
    <rc><c>Na</c><c>   1</c></rc>
    <rc><c>Na</c><c>   1</c></rc>
    <rc><c>Na</c><c>   1</c></rc>
    <rc><c>Na</c><c>   1</c></rc>
    <rc><c>Na</c><c>   1</c></rc>
    <rc><c>Na</c><c>   1</c></rc>
    <rc><c>Na</c><c>   1</c></rc>
    <rc><c>Na</c><c>   1</c></rc>
    <rc><c>Na</c><c>   1</c></rc>
    <rc><c>Na</c><c>   1</c></rc>
    <rc><c>Na</c><c>   1</c></rc>
    <rc><c>Na</c><c>   1</c></rc>
    <rc><c>Na</c><c>   1</c></rc>
    <rc><c>Na</c><c>   1</c></rc>
    <rc><c>Na</c><c>   1</c></rc>
    <rc><c>Na</c><c>   1</c></rc>
    <rc><c>Na</c><c>   1</c></rc>
    <rc><c>Na</c><c>   1</c></rc>
    <rc><c>Na</c><c>   1</c></rc>
    <rc><c>Na</c><c>   1</c></rc>
    <rc><c>Na</c><c>   1</c></rc>
    <rc><c>Na</c><c>   1</c></rc>
    <rc><c>Na</c><c>   1</c></rc>
    <rc><c>Na</c><c>   1</c></rc>
    <rc><c>Na</c><c>   1</c></rc>
    <rc><c>Na</c><c>   1</c></rc>
    <rc><c>Na</c><c>   1</c></rc>
    <rc><c>Na</c><c>   1</c></rc>
    <rc><c>Na</c><c>   1</c></rc>
    <rc><c>Na</c><c>   1</c></rc>
    <rc><c>Na</c><c>   1</c></rc>
    <rc><c>Na</c><c>   1</c></rc>
    <rc><c>Na</c><c>   1</c></rc>
    <rc><c>Na</c><c>   1</c></rc>
    <rc><c>Na</c><c>   1</c></rc>
    <rc><c>Na</c><c>   1</c></rc>
    <rc><c>Na</c><c>   1</c></rc>
    <rc><c>Na</c><c>   1</c></rc>
    <rc><c>Na</c><c>   1</c></rc>
    <rc><c>Na</c><c>   1</c></rc>
    <rc><c>Na</c><c>   1</c></rc>
    <rc><c>Na</c><c>   1</c></rc>
    <rc><c>Na</c><c>   1</c></rc>
    <rc><c>Na</c><c>   1</c></rc>
    <rc><c>Na</c><c>   1</c></rc>
    <rc><c>Na</c><c>   1</c></rc>
    <rc><c>Na</c><c>   1</c></rc>
    <rc><c>Na</c><c>   1</c></rc>
    <rc><c>Na</c><c>   1</c></rc>
    <rc><c>Na</c><c>   1</c></rc>
    <rc><c>Na</c><c>   1</c></rc>
    <rc><c>Na</c><c>   1</c></rc>
    <rc><c>Na</c><c>   1</c></rc>
    <rc><c>Na</c><c>   1</c></rc>
    <rc><c>Na</c><c>   1</c></rc>
    <rc><c>Na</c><c>   1</c></rc>
    <rc><c>Na</c><c>   1</c></rc>
    <rc><c>Na</c><c>   1</c></rc>
    <rc><c>Na</c><c>   1</c></rc>
    <rc><c>Na</c><c>   1</c></rc>
    <rc><c>Na</c><c>   1</c></rc>
    <rc><c>Na</c><c>   1</c></rc>
    <rc><c>Na</c><c>   1</c></rc>
    <rc><c>Na</c><c>   1</c></rc>
    <rc><c>Na</c><c>   1</c></rc>
    <rc><c>Na</c><c>   1</c></rc>
    <rc><c>Na</c><c>   1</c></rc>
    <rc><c>Na</c><c>   1</c></rc>
    <rc><c>Na</c><c>   1</c></rc>
    <rc><c>Na</c><c>   1</c></rc>
    <rc><c>Na</c><c>   1</c></rc>
    <rc><c>Na</c><c>   1</c></rc>
    <rc><c>Na</c><c>   1</c></rc>
    <rc><c>Na</c><c>   1</c></rc>
    <rc><c>Na</c><c>   1</c></rc>
    <rc><c>Na</c><c>   1</c></rc>
    <rc><c>Na</c><c>   1</c></rc>
    <rc><c>Na</c><c>   1</c></rc>
    <rc><c>Na</c><c>   1</c></rc>
    <rc><c>O </c><c>   2</c></rc>
    <rc><c>O </c><c>   2</c></rc>
    <rc><c>O </c><c>   2</c></rc>
    <rc><c>O </c><c>   2</c></rc>
    <rc><c>O </c><c>   2</c></rc>
    <rc><c>O </c><c>   2</c></rc>
    <rc><c>O </c><c>   2</c></rc>
    <rc><c>O </c><c>   2</c></rc>
    <rc><c>O </c><c>   2</c></rc>
    <rc><c>O </c><c>   2</c></rc>
    <rc><c>O </c><c>   2</c></rc>
    <rc><c>O </c><c>   2</c></rc>
    <rc><c>O </c><c>   2</c></rc>
    <rc><c>O </c><c>   2</c></rc>
    <rc><c>O </c><c>   2</c></rc>
    <rc><c>O </c><c>   2</c></rc>
    <rc><c>O </c><c>   2</c></rc>
    <rc><c>O </c><c>   2</c></rc>
    <rc><c>O </c><c>   2</c></rc>
    <rc><c>O </c><c>   2</c></rc>
    <rc><c>O </c><c>   2</c></rc>
    <rc><c>O </c><c>   2</c></rc>
    <rc><c>O </c><c>   2</c></rc>
    <rc><c>O </c><c>   2</c></rc>
    <rc><c>O </c><c>   2</c></rc>
    <rc><c>O </c><c>   2</c></rc>
    <rc><c>O </c><c>   2</c></rc>
    <rc><c>O </c><c>   2</c></rc>
    <rc><c>O </c><c>   2</c></rc>
    <rc><c>O </c><c>   2</c></rc>
    <rc><c>O </c><c>   2</c></rc>
    <rc><c>O </c><c>   2</c></rc>
    <rc><c>O </c><c>   2</c></rc>
    <rc><c>O </c><c>   2</c></rc>
    <rc><c>O </c><c>   2</c></rc>
    <rc><c>O </c><c>   2</c></rc>
    <rc><c>Cl</c><c>   3</c></rc>
    <rc><c>Cl</c><c>   3</c></rc>
    <rc><c>Cl</c><c>   3</c></rc>
    <rc><c>Cl</c><c>   3</c></rc>
    <rc><c>Cl</c><c>   3</c></rc>
    <rc><c>Cl</c><c>   3</c></rc>
    <rc><c>Cl</c><c>   3</c></rc>
    <rc><c>Cl</c><c>   3</c></rc>
    <rc><c>Cl</c><c>   3</c></rc>
    <rc><c>Cl</c><c>   3</c></rc>
    <rc><c>Cl</c><c>   3</c></rc>
    <rc><c>Cl</c><c>   3</c></rc>
    <rc><c>Cl</c><c>   3</c></rc>
    <rc><c>Cl</c><c>   3</c></rc>
    <rc><c>Cl</c><c>   3</c></rc>
    <rc><c>Cl</c><c>   3</c></rc>
    <rc><c>Cl</c><c>   3</c></rc>
    <rc><c>Cl</c><c>   3</c></rc>
    <rc><c>Cl</c><c>   3</c></rc>
    <rc><c>Cl</c><c>   3</c></rc>
    <rc><c>Cl</c><c>   3</c></rc>
    <rc><c>Cl</c><c>   3</c></rc>
    <rc><c>Cl</c><c>   3</c></rc>
    <rc><c>Cl</c><c>   3</c></rc>
    <rc><c>Cl</c><c>   3</c></rc>
    <rc><c>Cl</c><c>   3</c></rc>
    <rc><c>Cl</c><c>   3</c></rc>
    <rc><c>Cl</c><c>   3</c></rc>
    <rc><c>Cl</c><c>   3</c></rc>
    <rc><c>Cl</c><c>   3</c></rc>
    <rc><c>Cl</c><c>   3</c></rc>
    <rc><c>Cl</c><c>   3</c></rc>
    <rc><c>Cl</c><c>   3</c></rc>
    <rc><c>Cl</c><c>   3</c></rc>
    <rc><c>Cl</c><c>   3</c></rc>
    <rc><c>Cl</c><c>   3</c></rc>
   </set>
  </array>
  <array name="atomtypes" >
   <dimension dim="1">type</dimension>
   <field type="int">atomspertype</field>
   <field type="string">element</field>
   <field>mass</field>
   <field>valence</field>
   <field type="string">pseudopotential</field>
   <set>
    <rc><c> 108</c><c>Na</c><c>     22.99000000</c><c>      1.00000000</c><c>  PAW_PBE Na 08Apr2002                  </c></rc>
    <rc><c>  36</c><c>O </c><c>     16.00000000</c><c>      6.00000000</c><c>  PAW_PBE O 08Apr2002                   </c></rc>
    <rc><c>  36</c><c>Cl</c><c>     35.45300000</c><c>      7.00000000</c><c>  PAW_PBE Cl 06Sep2000                  </c></rc>
   </set>
  </array>
 </atominfo>
 <structure name="initialpos" >
  <crystal>
   <varray name="basis" >
    <v>     -17.60551920     -26.52027608       0.00000000 </v>
    <v>      -6.84445572     -24.67396948       0.00000000 </v>
    <v>       0.00000000       0.00000000      23.03144916 </v>
   </varray>
   <i name="volume">   5824.22022867 </i>
   <varray name="rec_basis" >
    <v>      -0.09757139       0.02706590       0.00000000 </v>
    <v>       0.10487248      -0.06961973       0.00000000 </v>
    <v>       0.00000000       0.00000000       0.04341889 </v>
   </varray>
  </crystal>
  <varray name="positions" >
   <v>       0.52676446       0.96252979       0.26051335 </v>
   <v>       0.24898669       0.35141867       0.39736286 </v>
   <v>       0.97120891       0.74030756       0.53421237 </v>
   <v>       0.69343113       0.12919645       0.67106188 </v>
   <v>       0.74898669       0.85141867       0.26051335 </v>
   <v>       0.49898664       0.10141872       0.32893812 </v>
   <v>       0.47120891       0.24030756       0.39736286 </v>
   <v>       0.22120886       0.49030761       0.46578763 </v>
   <v>       0.19343113       0.62919645       0.53421237 </v>
   <v>       0.94343108       0.87919650       0.60263714 </v>
   <v>       0.91565335       0.01808534       0.67106188 </v>
   <v>       0.66565331       0.26808539       0.73948665 </v>
   <v>       0.72120886       0.99030761       0.32893812 </v>
   <v>       0.44343108       0.37919650       0.46578763 </v>
   <v>       0.16565331       0.76808539       0.60263714 </v>
   <v>       0.88787553       0.15697428       0.73948665 </v>
   <v>       0.69343098       0.12919666       0.26051335 </v>
   <v>       0.41565320       0.51808555       0.39736286 </v>
   <v>       0.13787542       0.90697444       0.53421237 </v>
   <v>       0.86009765       0.29586333       0.67106188 </v>
   <v>       0.63787557       0.40697423       0.26051335 </v>
   <v>       0.38787553       0.65697428       0.32893812 </v>
   <v>       0.91565320       0.01808555       0.26051335 </v>
   <v>       0.36009780       0.79586312       0.39736286 </v>
   <v>       0.11009775       0.04586317       0.46578763 </v>
   <v>       0.63787542       0.40697444       0.39736286 </v>
   <v>       0.08232002       0.18475201       0.53421237 </v>
   <v>       0.83231997       0.43475206       0.60263714 </v>
   <v>       0.36009765       0.79586333       0.53421237 </v>
   <v>       0.80454224       0.57364090       0.67106188 </v>
   <v>       0.55454220       0.82364095       0.73948665 </v>
   <v>       0.08231987       0.18475222       0.67106188 </v>
   <v>       0.86009780       0.29586312       0.26051335 </v>
   <v>       0.61009775       0.54586317       0.32893812 </v>
   <v>       0.13787542       0.90697444       0.26051335 </v>
   <v>       0.58232002       0.68475201       0.39736286 </v>
   <v>       0.33231997       0.93475206       0.46578763 </v>
   <v>       0.86009765       0.29586333       0.39736286 </v>
   <v>       0.30454224       0.07364090       0.53421237 </v>
   <v>       0.05454220       0.32364095       0.60263714 </v>
   <v>       0.58231987       0.68475222       0.53421237 </v>
   <v>       0.02676446       0.46252979       0.67106188 </v>
   <v>       0.77676442       0.71252984       0.73948665 </v>
   <v>       0.30454209       0.07364111       0.67106188 </v>
   <v>       0.58231987       0.68475222       0.26051335 </v>
   <v>       0.30454209       0.07364111       0.39736286 </v>
   <v>       0.02676431       0.46253000       0.53421237 </v>
   <v>       0.74898654       0.85141888       0.67106188 </v>
   <v>       0.08232002       0.18475201       0.26051335 </v>
   <v>       0.83231997       0.43475206       0.32893812 </v>
   <v>       0.36009765       0.79586333       0.26051335 </v>
   <v>       0.80454224       0.57364090       0.39736286 </v>
   <v>       0.55454219       0.82364095       0.46578763 </v>
   <v>       0.08231987       0.18475222       0.39736286 </v>
   <v>       0.52676446       0.96252979       0.53421237 </v>
   <v>       0.27676442       0.21252984       0.60263714 </v>
   <v>       0.80454209       0.57364111       0.53421237 </v>
   <v>       0.24898669       0.35141867       0.67106188 </v>
   <v>       0.99898664       0.60141872       0.73948665 </v>
   <v>       0.52676431       0.96253000       0.67106188 </v>
   <v>       0.80454209       0.57364111       0.26051335 </v>
   <v>       0.52676431       0.96253000       0.39736286 </v>
   <v>       0.24898654       0.35141888       0.53421237 </v>
   <v>       0.97120876       0.74030777       0.67106188 </v>
   <v>       0.30454224       0.07364090       0.26051335 </v>
   <v>       0.05454219       0.32364095       0.32893812 </v>
   <v>       0.02676446       0.46252979       0.39736286 </v>
   <v>       0.77676442       0.71252984       0.46578763 </v>
   <v>       0.74898669       0.85141867       0.53421237 </v>
   <v>       0.49898664       0.10141872       0.60263714 </v>
   <v>       0.47120891       0.24030756       0.67106188 </v>
   <v>       0.22120886       0.49030761       0.73948665 </v>
   <v>       0.02676431       0.46253000       0.26051335 </v>
   <v>       0.74898654       0.85141888       0.39736286 </v>
   <v>       0.47120876       0.24030777       0.53421237 </v>
   <v>       0.19343098       0.62919666       0.67106188 </v>
   <v>       0.27676442       0.21252984       0.32893812 </v>
   <v>       0.99898664       0.60141872       0.46578763 </v>
   <v>       0.72120886       0.99030761       0.60263714 </v>
   <v>       0.44343108       0.37919650       0.73948665 </v>
   <v>       0.97120891       0.74030756       0.26051335 </v>
   <v>       0.24898654       0.35141888       0.26051335 </v>
   <v>       0.69343113       0.12919645       0.39736286 </v>
   <v>       0.97120876       0.74030777       0.39736286 </v>
   <v>       0.41565335       0.51808534       0.53421237 </v>
   <v>       0.69343098       0.12919666       0.53421237 </v>
   <v>       0.13787557       0.90697423       0.67106188 </v>
   <v>       0.41565320       0.51808555       0.67106188 </v>
   <v>       0.19343113       0.62919645       0.26051335 </v>
   <v>       0.94343108       0.87919650       0.32893812 </v>
   <v>       0.47120876       0.24030777       0.26051335 </v>
   <v>       0.91565335       0.01808534       0.39736286 </v>
   <v>       0.66565331       0.26808539       0.46578763 </v>
   <v>       0.19343098       0.62919666       0.39736286 </v>
   <v>       0.63787557       0.40697423       0.53421237 </v>
   <v>       0.38787553       0.65697428       0.60263714 </v>
   <v>       0.91565320       0.01808555       0.53421237 </v>
   <v>       0.36009780       0.79586312       0.67106188 </v>
   <v>       0.11009775       0.04586317       0.73948665 </v>
   <v>       0.63787542       0.40697444       0.67106188 </v>
   <v>       0.41565335       0.51808534       0.26051335 </v>
   <v>       0.16565331       0.76808539       0.32893812 </v>
   <v>       0.13787557       0.90697423       0.39736286 </v>
   <v>       0.88787553       0.15697428       0.46578763 </v>
   <v>       0.86009780       0.29586312       0.53421237 </v>
   <v>       0.61009775       0.54586317       0.60263714 </v>
   <v>       0.58232002       0.68475201       0.67106188 </v>
   <v>       0.33231997       0.93475206       0.73948665 </v>
   <v>       0.38787554       0.15697427       0.32893812 </v>
   <v>       0.11009777       0.54586316       0.46578763 </v>
   <v>       0.83231999       0.93475205       0.60263714 </v>
   <v>       0.55454221       0.32364094       0.73948665 </v>
   <v>       0.61009777       0.04586316       0.32893812 </v>
   <v>       0.33231999       0.43475205       0.46578763 </v>
   <v>       0.05454221       0.82364094       0.60263714 </v>
   <v>       0.77676443       0.21252983       0.73948665 </v>
   <v>       0.49898665       0.60141872       0.32893812 </v>
   <v>       0.22120888       0.99030761       0.46578763 </v>
   <v>       0.94343110       0.37919649       0.60263714 </v>
   <v>       0.66565332       0.76808538       0.73948665 </v>
   <v>       0.72120888       0.49030761       0.32893812 </v>
   <v>       0.44343110       0.87919649       0.46578763 </v>
   <v>       0.16565332       0.26808538       0.60263714 </v>
   <v>       0.88787554       0.65697427       0.73948665 </v>
   <v>       0.94343110       0.37919649       0.32893812 </v>
   <v>       0.66565332       0.76808538       0.46578763 </v>
   <v>       0.38787554       0.15697427       0.60263714 </v>
   <v>       0.11009777       0.54586316       0.73948665 </v>
   <v>       0.16565332       0.26808538       0.32893812 </v>
   <v>       0.88787554       0.65697427       0.46578763 </v>
   <v>       0.61009777       0.04586316       0.60263714 </v>
   <v>       0.33231999       0.43475205       0.73948665 </v>
   <v>       0.83231999       0.93475205       0.32893812 </v>
   <v>       0.55454221       0.32364094       0.46578763 </v>
   <v>       0.27676443       0.71252983       0.60263714 </v>
   <v>       0.99898666       0.10141872       0.73948665 </v>
   <v>       0.05454221       0.82364094       0.32893812 </v>
   <v>       0.77676443       0.21252983       0.46578763 </v>
   <v>       0.49898666       0.60141872       0.60263714 </v>
   <v>       0.22120888       0.99030761       0.73948665 </v>
   <v>       0.27676443       0.71252983       0.32893812 </v>
   <v>       0.99898665       0.10141872       0.46578763 </v>
   <v>       0.72120888       0.49030761       0.60263714 </v>
   <v>       0.44343110       0.87919649       0.73948665 </v>
   <v>       0.88787553       0.15697428       0.60263712 </v>
   <v>       0.61009775       0.54586317       0.73948663 </v>
   <v>       0.44343097       0.37919666       0.32893810 </v>
   <v>       0.16565320       0.76808554       0.46578761 </v>
   <v>       0.11009775       0.04586317       0.60263712 </v>
   <v>       0.83231997       0.43475206       0.73948663 </v>
   <v>       0.66565320       0.26808554       0.32893810 </v>
   <v>       0.38787542       0.65697443       0.46578761 </v>
   <v>       0.33231997       0.93475206       0.60263712 </v>
   <v>       0.05454220       0.32364094       0.73948663 </v>
   <v>       0.88787542       0.15697443       0.32893810 </v>
   <v>       0.61009764       0.54586332       0.46578761 </v>
   <v>       0.77676442       0.71252983       0.60263712 </v>
   <v>       0.49898664       0.10141872       0.73948663 </v>
   <v>       0.55454220       0.82364094       0.60263712 </v>
   <v>       0.27676442       0.21252983       0.73948663 </v>
   <v>       0.11009764       0.04586332       0.32893810 </v>
   <v>       0.83231986       0.43475221       0.46578761 </v>
   <v>       0.99898664       0.60141872       0.60263712 </v>
   <v>       0.72120886       0.99030761       0.73948663 </v>
   <v>       0.55454209       0.82364110       0.32893810 </v>
   <v>       0.27676431       0.21252999       0.46578761 </v>
   <v>       0.33231986       0.93475221       0.32893810 </v>
   <v>       0.05454209       0.32364110       0.46578761 </v>
   <v>       0.22120886       0.49030761       0.60263712 </v>
   <v>       0.94343109       0.87919650       0.73948663 </v>
   <v>       0.77676431       0.71252999       0.32893810 </v>
   <v>       0.49898653       0.10141888       0.46578761 </v>
   <v>       0.44343109       0.37919650       0.60263712 </v>
   <v>       0.16565331       0.76808539       0.73948663 </v>
   <v>       0.99898653       0.60141888       0.32893810 </v>
   <v>       0.72120875       0.99030777       0.46578761 </v>
   <v>       0.66565331       0.26808539       0.60263712 </v>
   <v>       0.38787553       0.65697428       0.73948663 </v>
   <v>       0.22120875       0.49030777       0.32893810 </v>
   <v>       0.94343097       0.87919666       0.46578761 </v>
  </varray>
 </structure>
 <calculation>
  <scstep>
   <time name="dav">   20.03   20.80</time>
   <time name="total">   20.31   21.08</time>
   <dipole>
    <v name="dipole">      0.00000000       0.00000000       0.02829344 </v>
    <i name="Tr[quadrupol]"> -80008.44737736 </i>
    <i name="Echarged">      0.00000000 </i>
    <i name="Edipol_quadrupol">      0.00000000 </i>
    <i name="Eion">      0.00000000 </i>
   </dipole>
   <energy>
    <i name="alphaZ">     -6.02219811 </i>
    <i name="ewald">  28849.47005426 </i>
    <i name="hartreedc"> -56401.75232463 </i>
    <i name="XCdc">  -2243.58181961 </i>
    <i name="pawpsdc">  28492.32500843 </i>
    <i name="pawaedc"> -24510.25429160 </i>
    <i name="eentropy">     -0.22059658 </i>
    <i name="bandstr">   -190.53376664 </i>
    <i name="atom">  30868.35515899 </i>
    <i name="e_fr_energy">   4857.78522452 </i>
    <i name="e_wo_entrp">   4858.00582110 </i>
    <i name="e_0_energy">   4857.89552281 </i>
   </energy>
  </scstep>
  <scstep>
   <time name="dav">   25.16   26.16</time>
   <time name="total">   25.17   26.17</time>
   <dipole>
    <v name="dipole">      0.00000000       0.00000000       0.02829344 </v>
    <i name="Tr[quadrupol]"> -80008.44737736 </i>
    <i name="Echarged">      0.00000000 </i>
    <i name="Edipol_quadrupol">      0.00000000 </i>
    <i name="Eion">      0.00000000 </i>
   </dipole>
   <energy>
    <i name="e_fr_energy">    517.71387808 </i>
    <i name="e_wo_entrp">    517.71387808 </i>
    <i name="e_0_energy">    517.71387808 </i>
   </energy>
  </scstep>
  <scstep>
   <time name="dav">   26.04   27.09</time>
   <time name="total">   26.05   27.10</time>
   <dipole>
    <v name="dipole">      0.00000000       0.00000000       0.02829344 </v>
    <i name="Tr[quadrupol]"> -80008.44737736 </i>
    <i name="Echarged">      0.00000000 </i>
    <i name="Edipol_quadrupol">      0.00000000 </i>
    <i name="Eion">      0.00000000 </i>
   </dipole>
   <energy>
    <i name="e_fr_energy">   -781.18695296 </i>
    <i name="e_wo_entrp">   -781.18695296 </i>
    <i name="e_0_energy">   -781.18695296 </i>
   </energy>
  </scstep>
  <scstep>
   <time name="dav">   22.67   23.90</time>
   <time name="total">   22.67   23.90</time>
   <dipole>
    <v name="dipole">      0.00000000       0.00000000       0.02829344 </v>
    <i name="Tr[quadrupol]"> -80008.44737736 </i>
    <i name="Echarged">      0.00000000 </i>
    <i name="Edipol_quadrupol">      0.00000000 </i>
    <i name="Eion">      0.00000000 </i>
   </dipole>
   <energy>
    <i name="e_fr_energy">   -822.85805577 </i>
    <i name="e_wo_entrp">   -822.85805577 </i>
    <i name="e_0_energy">   -822.85805577 </i>
   </energy>
  </scstep>
  <scstep>
   <time name="dav">   25.21   26.34</time>
   <time name="total">   25.99   27.12</time>
   <dipole>
    <v name="dipole">      0.00000000       0.00000000       0.02829344 </v>
    <i name="Tr[quadrupol]"> -80008.44737736 </i>
    <i name="Echarged">      0.00000000 </i>
    <i name="Edipol_quadrupol">      0.00000000 </i>
    <i name="Eion">      0.00000000 </i>
   </dipole>
   <energy>
    <i name="e_fr_energy">   -824.18757649 </i>
    <i name="e_wo_entrp">   -824.18757649 </i>
    <i name="e_0_energy">   -824.18757649 </i>
   </energy>
  </scstep>
  <scstep>
   <time name="diag">    3.83    3.96</time>
   <time name="diis">   10.83   11.16</time>
   <time name="orth">    0.81    0.87</time>
   <time name="total">   16.70   17.23</time>
   <dipole>
    <v name="dipole">      0.00000000       0.00000000       9.94453375 </v>
    <i name="Tr[quadrupol]"> -80030.79701947 </i>
    <i name="Echarged">      0.00000000 </i>
    <i name="Edipol_quadrupol">      0.00000000 </i>
    <i name="Eion">      0.00000000 </i>
   </dipole>
   <energy>
    <i name="e_fr_energy">   -741.15076412 </i>
    <i name="e_wo_entrp">   -741.02564360 </i>
    <i name="e_0_energy">   -741.08820386 </i>
   </energy>
  </scstep>
  <scstep>
   <time name="diag">    3.86    3.98</time>
   <time name="diis">   11.61   12.03</time>
   <time name="orth">    0.90    1.01</time>
   <time name="total">   17.43   18.09</time>
   <dipole>
    <v name="dipole">      0.00000000       0.00000000      -3.85609849 </v>
    <i name="Tr[quadrupol]"> -80036.36743474 </i>
    <i name="Echarged">      0.00000000 </i>
    <i name="Edipol_quadrupol">      0.00000000 </i>
    <i name="Eion">      0.00000000 </i>
   </dipole>
   <energy>
    <i name="e_fr_energy">   -706.58614843 </i>
    <i name="e_wo_entrp">   -706.58614843 </i>
    <i name="e_0_energy">   -706.58614843 </i>
   </energy>
  </scstep>
  <scstep>
   <time name="diag">    3.83    3.97</time>
   <time name="diis">   10.62   10.94</time>
   <time name="orth">    0.76    0.76</time>
   <time name="total">   16.27   16.75</time>
   <dipole>
    <v name="dipole">      0.00000000       0.00000000      -0.41378006 </v>
    <i name="Tr[quadrupol]"> -80047.83174391 </i>
    <i name="Echarged">      0.00000000 </i>
    <i name="Edipol_quadrupol">      0.00000000 </i>
    <i name="Eion">      0.00000000 </i>
   </dipole>
   <energy>
    <i name="e_fr_energy">   -663.40897463 </i>
    <i name="e_wo_entrp">   -663.40897463 </i>
    <i name="e_0_energy">   -663.40897463 </i>
   </energy>
  </scstep>
  <scstep>
   <time name="diag">    3.73    3.79</time>
   <time name="diis">   11.60   11.86</time>
   <time name="orth">    0.75    0.75</time>
   <time name="total">   17.28   17.72</time>
   <dipole>
    <v name="dipole">      0.00000000       0.00000000       8.82383905 </v>
    <i name="Tr[quadrupol]"> -80078.45549050 </i>
    <i name="Echarged">      0.00000000 </i>
    <i name="Edipol_quadrupol">      0.00000000 </i>
    <i name="Eion">      0.00000000 </i>
   </dipole>
   <energy>
    <i name="e_fr_energy">   -681.30006886 </i>
    <i name="e_wo_entrp">   -681.05538335 </i>
    <i name="e_0_energy">   -681.17772611 </i>
   </energy>
  </scstep>
  <scstep>
   <time name="diag">    3.76    3.94</time>
   <time name="diis">   11.04   11.52</time>
   <time name="orth">    1.16    1.21</time>
   <time name="total">   17.04   17.76</time>
   <dipole>
    <v name="dipole">      0.00000000       0.00000000       6.26674552 </v>
    <i name="Tr[quadrupol]"> -80072.37620658 </i>
    <i name="Echarged">      0.00000000 </i>
    <i name="Edipol_quadrupol">      0.00000000 </i>
    <i name="Eion">      0.00000000 </i>
   </dipole>
   <energy>
    <i name="e_fr_energy">   -619.87151876 </i>
    <i name="e_wo_entrp">   -619.26638831 </i>
    <i name="e_0_energy">   -619.56895353 </i>
   </energy>
  </scstep>
  <scstep>
   <time name="diag">    3.86    3.96</time>
   <time name="diis">   12.45   13.02</time>
   <time name="orth">    0.76    0.76</time>
   <time name="total">   18.19   19.04</time>
   <dipole>
    <v name="dipole">      0.00000000       0.00000000       6.23131096 </v>
    <i name="Tr[quadrupol]"> -80072.19444725 </i>
    <i name="Echarged">      0.00000000 </i>
    <i name="Edipol_quadrupol">      0.00000000 </i>
    <i name="Eion">      0.00000000 </i>
   </dipole>
   <energy>
    <i name="e_fr_energy">   -620.00279733 </i>
    <i name="e_wo_entrp">   -619.42160927 </i>
    <i name="e_0_energy">   -619.71220330 </i>
   </energy>
  </scstep>
  <scstep>
   <time name="diag">    3.70    3.77</time>
   <time name="diis">   12.81   13.20</time>
   <time name="orth">    0.75    0.92</time>
   <time name="total">   18.35   18.98</time>
   <dipole>
    <v name="dipole">      0.00000000       0.00000000       6.30778930 </v>
    <i name="Tr[quadrupol]"> -80072.30432515 </i>
    <i name="Echarged">      0.00000000 </i>
    <i name="Edipol_quadrupol">      0.00000000 </i>
    <i name="Eion">      0.00000000 </i>
   </dipole>
   <energy>
    <i name="e_fr_energy">   -621.16502250 </i>
    <i name="e_wo_entrp">   -620.58144631 </i>
    <i name="e_0_energy">   -620.87323440 </i>
   </energy>
  </scstep>
  <scstep>
   <time name="diag">    3.76    3.94</time>
   <time name="diis">   10.73   11.12</time>
   <time name="orth">    0.75    0.75</time>
   <time name="total">   16.32   17.11</time>
   <dipole>
    <v name="dipole">      0.00000000       0.00000000       6.56000738 </v>
    <i name="Tr[quadrupol]"> -80072.72377108 </i>
    <i name="Echarged">      0.00000000 </i>
    <i name="Edipol_quadrupol">      0.00000000 </i>
    <i name="Eion">      0.00000000 </i>
   </dipole>
   <energy>
    <i name="e_fr_energy">   -623.27568746 </i>
    <i name="e_wo_entrp">   -622.63695564 </i>
    <i name="e_0_energy">   -622.95632155 </i>
   </energy>
  </scstep>
  <scstep>
   <time name="diag">    4.66    4.89</time>
   <time name="diis">   11.54   11.94</time>
   <time name="orth">    0.96    0.97</time>
   <time name="total">   18.24   18.90</time>
   <dipole>
    <v name="dipole">      0.00000000       0.00000000       6.60656141 </v>
    <i name="Tr[quadrupol]"> -80072.73378691 </i>
    <i name="Echarged">      0.00000000 </i>
    <i name="Edipol_quadrupol">      0.00000000 </i>
    <i name="Eion">      0.00000000 </i>
   </dipole>
   <energy>
    <i name="e_fr_energy">   -623.31439753 </i>
    <i name="e_wo_entrp">   -622.59997813 </i>
    <i name="e_0_energy">   -622.95718783 </i>
   </energy>
  </scstep>
  <scstep>
   <time name="diag">    3.76    3.94</time>
   <time name="diis">   10.75   11.11</time>
   <time name="orth">    0.75    0.75</time>
   <time name="total">   17.17   17.72</time>
   <dipole>
    <v name="dipole">      0.00000000       0.00000000       6.59686552 </v>
    <i name="Tr[quadrupol]"> -80072.74162376 </i>
    <i name="Echarged">      0.00000000 </i>
    <i name="Edipol_quadrupol">      0.00000000 </i>
    <i name="Eion">      0.00000000 </i>
   </dipole>
   <energy>
    <i name="e_fr_energy">   -623.27885732 </i>
    <i name="e_wo_entrp">   -622.57574156 </i>
    <i name="e_0_energy">   -622.92729944 </i>
   </energy>
  </scstep>
  <scstep>
   <time name="diag">    3.83    4.00</time>
   <time name="diis">   11.16   11.44</time>
   <time name="orth">    0.75    0.76</time>
   <time name="total">   17.02   17.60</time>
   <dipole>
    <v name="dipole">      0.00000000       0.00000000       6.56380488 </v>
    <i name="Tr[quadrupol]"> -80072.93017226 </i>
    <i name="Echarged">      0.00000000 </i>
    <i name="Edipol_quadrupol">      0.00000000 </i>
    <i name="Eion">      0.00000000 </i>
   </dipole>
   <energy>
    <i name="e_fr_energy">   -622.97910958 </i>
    <i name="e_wo_entrp">   -622.29927145 </i>
    <i name="e_0_energy">   -622.63919052 </i>
   </energy>
  </scstep>
  <scstep>
   <time name="diag">    3.80    3.98</time>
   <time name="diis">   11.40   11.80</time>
   <time name="orth">    0.76    0.76</time>
   <time name="total">   17.04   17.81</time>
   <dipole>
    <v name="dipole">      0.00000000       0.00000000       6.57050688 </v>
    <i name="Tr[quadrupol]"> -80072.88215238 </i>
    <i name="Echarged">      0.00000000 </i>
    <i name="Edipol_quadrupol">      0.00000000 </i>
    <i name="Eion">      0.00000000 </i>
   </dipole>
   <energy>
    <i name="e_fr_energy">   -623.05077255 </i>
    <i name="e_wo_entrp">   -622.36029475 </i>
    <i name="e_0_energy">   -622.70553365 </i>
   </energy>
  </scstep>
  <scstep>
   <time name="diag">    3.66    3.83</time>
   <time name="diis">   11.33   11.58</time>
   <time name="orth">    0.75    0.75</time>
   <time name="total">   16.83   17.26</time>
   <dipole>
    <v name="dipole">      0.00000000       0.00000000       6.62506732 </v>
    <i name="Tr[quadrupol]"> -80072.53204565 </i>
    <i name="Echarged">      0.00000000 </i>
    <i name="Edipol_quadrupol">      0.00000000 </i>
    <i name="Eion">      0.00000000 </i>
   </dipole>
   <energy>
    <i name="e_fr_energy">   -623.51064046 </i>
    <i name="e_wo_entrp">   -622.78921045 </i>
    <i name="e_0_energy">   -623.14992546 </i>
   </energy>
  </scstep>
  <scstep>
   <time name="diag">    3.82    3.93</time>
   <time name="diis">   12.19   12.61</time>
   <time name="orth">    0.75    0.75</time>
   <time name="total">   17.95   18.60</time>
   <dipole>
    <v name="dipole">      0.00000000       0.00000000       6.65541562 </v>
    <i name="Tr[quadrupol]"> -80072.23903699 </i>
    <i name="Echarged">      0.00000000 </i>
    <i name="Edipol_quadrupol">      0.00000000 </i>
    <i name="Eion">      0.00000000 </i>
   </dipole>
   <energy>
    <i name="e_fr_energy">   -623.99103518 </i>
    <i name="e_wo_entrp">   -623.32199744 </i>
    <i name="e_0_energy">   -623.65651631 </i>
   </energy>
  </scstep>
  <scstep>
   <time name="diag">    3.67    3.80</time>
   <time name="diis">   17.14   17.75</time>
   <time name="orth">    0.84    0.96</time>
   <time name="total">   22.83   23.76</time>
   <dipole>
    <v name="dipole">      0.00000000       0.00000000       6.64113241 </v>
    <i name="Tr[quadrupol]"> -80068.87461658 </i>
    <i name="Echarged">      0.00000000 </i>
    <i name="Edipol_quadrupol">      0.00000000 </i>
    <i name="Eion">      0.00000000 </i>
   </dipole>
   <energy>
    <i name="e_fr_energy">   -623.88678791 </i>
    <i name="e_wo_entrp">   -623.47022043 </i>
    <i name="e_0_energy">   -623.67850417 </i>
   </energy>
  </scstep>
  <scstep>
   <time name="diag">    3.78    3.97</time>
   <time name="diis">   16.62   17.53</time>
   <time name="orth">    0.75    0.75</time>
   <time name="total">   22.25   23.42</time>
   <dipole>
    <v name="dipole">      0.00000000       0.00000000       6.58633186 </v>
    <i name="Tr[quadrupol]"> -80066.47142036 </i>
    <i name="Echarged">      0.00000000 </i>
    <i name="Edipol_quadrupol">      0.00000000 </i>
    <i name="Eion">      0.00000000 </i>
   </dipole>
   <energy>
    <i name="e_fr_energy">   -620.68627555 </i>
    <i name="e_wo_entrp">   -620.14125118 </i>
    <i name="e_0_energy">   -620.41376336 </i>
   </energy>
  </scstep>
  <scstep>
   <time name="diag">    4.53    4.75</time>
   <time name="diis">   17.69   18.32</time>
   <time name="orth">    0.75    0.75</time>
   <time name="total">   24.11   25.09</time>
   <dipole>
    <v name="dipole">      0.00000000       0.00000000       6.29335147 </v>
    <i name="Tr[quadrupol]"> -80062.87572817 </i>
    <i name="Echarged">      0.00000000 </i>
    <i name="Edipol_quadrupol">      0.00000000 </i>
    <i name="Eion">      0.00000000 </i>
   </dipole>
   <energy>
    <i name="e_fr_energy">   -619.77981052 </i>
    <i name="e_wo_entrp">   -619.33217370 </i>
    <i name="e_0_energy">   -619.55599211 </i>
   </energy>
  </scstep>
  <scstep>
   <time name="diag">    3.82    4.01</time>
   <time name="diis">   17.82   18.33</time>
   <time name="orth">    0.76    0.76</time>
   <time name="total">   23.60   24.38</time>
   <dipole>
    <v name="dipole">      0.00000000       0.00000000       5.99630922 </v>
    <i name="Tr[quadrupol]"> -80059.62224044 </i>
    <i name="Echarged">      0.00000000 </i>
    <i name="Edipol_quadrupol">      0.00000000 </i>
    <i name="Eion">      0.00000000 </i>
   </dipole>
   <energy>
    <i name="e_fr_energy">   -614.56897754 </i>
    <i name="e_wo_entrp">   -613.91611687 </i>
    <i name="e_0_energy">   -614.24254721 </i>
   </energy>
  </scstep>
  <scstep>
   <time name="diag">    3.89    3.95</time>
   <time name="diis">   17.41   18.01</time>
   <time name="orth">    0.82    0.87</time>
   <time name="total">   23.19   23.91</time>
   <dipole>
    <v name="dipole">      0.00000000       0.00000000       6.24079198 </v>
    <i name="Tr[quadrupol]"> -80060.07835062 </i>
    <i name="Echarged">      0.00000000 </i>
    <i name="Edipol_quadrupol">      0.00000000 </i>
    <i name="Eion">      0.00000000 </i>
   </dipole>
   <energy>
    <i name="e_fr_energy">   -617.69144388 </i>
    <i name="e_wo_entrp">   -617.35781719 </i>
    <i name="e_0_energy">   -617.52463054 </i>
   </energy>
  </scstep>
  <scstep>
   <time name="diag">    3.77    4.00</time>
   <time name="diis">   16.38   16.99</time>
   <time name="orth">    0.75    0.75</time>
   <time name="total">   22.64   23.60</time>
   <dipole>
    <v name="dipole">      0.00000000       0.00000000       6.32611973 </v>
    <i name="Tr[quadrupol]"> -80060.63027785 </i>
    <i name="Echarged">      0.00000000 </i>
    <i name="Edipol_quadrupol">      0.00000000 </i>
    <i name="Eion">      0.00000000 </i>
   </dipole>
   <energy>
    <i name="e_fr_energy">   -615.04260657 </i>
    <i name="e_wo_entrp">   -614.31078584 </i>
    <i name="e_0_energy">   -614.67669621 </i>
   </energy>
  </scstep>
  <scstep>
   <time name="diag">    3.81    4.04</time>
   <time name="diis">   16.36   16.84</time>
   <time name="orth">    0.75    0.81</time>
   <time name="total">   22.05   22.89</time>
   <dipole>
    <v name="dipole">      0.00000000       0.00000000       6.07109418 </v>
    <i name="Tr[quadrupol]"> -80063.01215428 </i>
    <i name="Echarged">      0.00000000 </i>
    <i name="Edipol_quadrupol">      0.00000000 </i>
    <i name="Eion">      0.00000000 </i>
   </dipole>
   <energy>
    <i name="e_fr_energy">   -614.50352546 </i>
    <i name="e_wo_entrp">   -613.85414229 </i>
    <i name="e_0_energy">   -614.17883388 </i>
   </energy>
  </scstep>
  <scstep>
   <time name="diag">    3.77    4.01</time>
   <time name="diis">   16.98   17.57</time>
   <time name="orth">    0.75    0.75</time>
   <time name="total">   22.58   23.42</time>
   <dipole>
    <v name="dipole">      0.00000000       0.00000000       5.84157434 </v>
    <i name="Tr[quadrupol]"> -80067.01371531 </i>
    <i name="Echarged">      0.00000000 </i>
    <i name="Edipol_quadrupol">      0.00000000 </i>
    <i name="Eion">      0.00000000 </i>
   </dipole>
   <energy>
    <i name="e_fr_energy">   -614.17528068 </i>
    <i name="e_wo_entrp">   -613.48058606 </i>
    <i name="e_0_energy">   -613.82793337 </i>
   </energy>
  </scstep>
  <scstep>
   <time name="diag">    4.09    4.29</time>
   <time name="diis">   17.38   17.96</time>
   <time name="orth">    0.76    0.82</time>
   <time name="total">   23.31   24.17</time>
   <dipole>
    <v name="dipole">      0.00000000       0.00000000       5.35993723 </v>
    <i name="Tr[quadrupol]"> -80070.36078812 </i>
    <i name="Echarged">      0.00000000 </i>
    <i name="Edipol_quadrupol">      0.00000000 </i>
    <i name="Eion">      0.00000000 </i>
   </dipole>
   <energy>
    <i name="e_fr_energy">   -614.64581851 </i>
    <i name="e_wo_entrp">   -614.09335730 </i>
    <i name="e_0_energy">   -614.36958790 </i>
   </energy>
  </scstep>
  <scstep>
   <time name="diag">    3.89    3.96</time>
   <time name="diis">   11.87   12.37</time>
   <time name="orth">    0.72    0.79</time>
   <time name="total">   17.55   18.22</time>
   <dipole>
    <v name="dipole">      0.00000000       0.00000000       5.34721850 </v>
    <i name="Tr[quadrupol]"> -80070.27842682 </i>
    <i name="Echarged">      0.00000000 </i>
    <i name="Edipol_quadrupol">      0.00000000 </i>
    <i name="Eion">      0.00000000 </i>
   </dipole>
   <energy>
    <i name="e_fr_energy">   -614.75265574 </i>
    <i name="e_wo_entrp">   -614.20794889 </i>
    <i name="e_0_energy">   -614.48030231 </i>
   </energy>
  </scstep>
  <scstep>
   <time name="diag">    4.49    4.72</time>
   <time name="diis">   14.40   14.86</time>
   <time name="orth">    0.75    0.76</time>
   <time name="total">   20.74   21.53</time>
   <dipole>
    <v name="dipole">      0.00000000       0.00000000       5.45040643 </v>
    <i name="Tr[quadrupol]"> -80071.89811823 </i>
    <i name="Echarged">      0.00000000 </i>
    <i name="Edipol_quadrupol">      0.00000000 </i>
    <i name="Eion">      0.00000000 </i>
   </dipole>
   <energy>
    <i name="e_fr_energy">   -614.43601606 </i>
    <i name="e_wo_entrp">   -613.84141771 </i>
    <i name="e_0_energy">   -614.13871689 </i>
   </energy>
  </scstep>
  <scstep>
   <time name="diag">    3.78    3.93</time>
   <time name="diis">   15.57   16.04</time>
   <time name="orth">    0.75    0.76</time>
   <time name="total">   21.19   21.83</time>
   <dipole>
    <v name="dipole">      0.00000000       0.00000000       5.43695008 </v>
    <i name="Tr[quadrupol]"> -80073.24313163 </i>
    <i name="Echarged">      0.00000000 </i>
    <i name="Edipol_quadrupol">      0.00000000 </i>
    <i name="Eion">      0.00000000 </i>
   </dipole>
   <energy>
    <i name="e_fr_energy">   -614.34707219 </i>
    <i name="e_wo_entrp">   -613.75242937 </i>
    <i name="e_0_energy">   -614.04975078 </i>
   </energy>
  </scstep>
  <scstep>
   <time name="diag">    3.79    3.90</time>
   <time name="diis">   17.67   18.27</time>
   <time name="orth">    0.72    0.83</time>
   <time name="total">   23.26   24.18</time>
   <dipole>
    <v name="dipole">      0.00000000       0.00000000       5.35421049 </v>
    <i name="Tr[quadrupol]"> -80075.99221201 </i>
    <i name="Echarged">      0.00000000 </i>
    <i name="Edipol_quadrupol">      0.00000000 </i>
    <i name="Eion">      0.00000000 </i>
   </dipole>
   <energy>
    <i name="e_fr_energy">   -614.23449827 </i>
    <i name="e_wo_entrp">   -613.66605395 </i>
    <i name="e_0_energy">   -613.95027611 </i>
   </energy>
  </scstep>
  <scstep>
   <time name="diag">    3.80    3.98</time>
   <time name="diis">   16.64   17.07</time>
   <time name="orth">    0.75    0.75</time>
   <time name="total">   22.28   22.88</time>
   <dipole>
    <v name="dipole">      0.00000000       0.00000000       5.31695684 </v>
    <i name="Tr[quadrupol]"> -80077.39285640 </i>
    <i name="Echarged">      0.00000000 </i>
    <i name="Edipol_quadrupol">      0.00000000 </i>
    <i name="Eion">      0.00000000 </i>
   </dipole>
   <energy>
    <i name="e_fr_energy">   -614.26889111 </i>
    <i name="e_wo_entrp">   -613.72222709 </i>
    <i name="e_0_energy">   -613.99555910 </i>
   </energy>
  </scstep>
  <scstep>
   <time name="diag">    3.75    3.87</time>
   <time name="diis">   13.84   14.22</time>
   <time name="orth">    0.81    0.81</time>
   <time name="total">   19.53   20.09</time>
   <dipole>
    <v name="dipole">      0.00000000       0.00000000       5.32625628 </v>
    <i name="Tr[quadrupol]"> -80077.98306886 </i>
    <i name="Echarged">      0.00000000 </i>
    <i name="Edipol_quadrupol">      0.00000000 </i>
    <i name="Eion">      0.00000000 </i>
   </dipole>
   <energy>
    <i name="e_fr_energy">   -614.24174850 </i>
    <i name="e_wo_entrp">   -613.69492856 </i>
    <i name="e_0_energy">   -613.96833853 </i>
   </energy>
  </scstep>
  <scstep>
   <time name="diag">    3.90    4.02</time>
   <time name="diis">   15.78   16.04</time>
   <time name="orth">    0.87    0.97</time>
   <time name="total">   21.71   22.30</time>
   <dipole>
    <v name="dipole">      0.00000000       0.00000000       5.43120654 </v>
    <i name="Tr[quadrupol]"> -80079.24530607 </i>
    <i name="Echarged">      0.00000000 </i>
    <i name="Edipol_quadrupol">      0.00000000 </i>
    <i name="Eion">      0.00000000 </i>
   </dipole>
   <energy>
    <i name="e_fr_energy">   -613.94954770 </i>
    <i name="e_wo_entrp">   -613.36804720 </i>
    <i name="e_0_energy">   -613.65879745 </i>
   </energy>
  </scstep>
  <scstep>
   <time name="diag">    3.72    4.02</time>
   <time name="diis">   16.10   16.54</time>
   <time name="orth">    0.89    1.00</time>
   <time name="total">   21.79   22.64</time>
   <dipole>
    <v name="dipole">      0.00000000       0.00000000       5.51399878 </v>
    <i name="Tr[quadrupol]"> -80080.52808499 </i>
    <i name="Echarged">      0.00000000 </i>
    <i name="Edipol_quadrupol">      0.00000000 </i>
    <i name="Eion">      0.00000000 </i>
   </dipole>
   <energy>
    <i name="e_fr_energy">   -613.81310183 </i>
    <i name="e_wo_entrp">   -613.18992534 </i>
    <i name="e_0_energy">   -613.50151358 </i>
   </energy>
  </scstep>
  <scstep>
   <time name="diag">    4.60    4.78</time>
   <time name="diis">   13.10   13.64</time>
   <time name="orth">    0.76    0.76</time>
   <time name="total">   19.55   20.27</time>
   <dipole>
    <v name="dipole">      0.00000000       0.00000000       5.54166434 </v>
    <i name="Tr[quadrupol]"> -80080.26947451 </i>
    <i name="Echarged">      0.00000000 </i>
    <i name="Edipol_quadrupol">      0.00000000 </i>
[...]
    <v>       0.55472625       0.32343013       0.73856892 </v>
    <v>       0.60982333       0.04617638       0.32552415 </v>
    <v>       0.33227719       0.43499043       0.46138736 </v>
    <v>       0.05469399       0.82348225       0.60067292 </v>
    <v>       0.77681296       0.21236595       0.73842237 </v>
    <v>       0.49902400       0.60151381       0.32541409 </v>
    <v>       0.22115167       0.99020283       0.46143022 </v>
    <v>       0.94362716       0.37906090       0.60073176 </v>
    <v>       0.66533216       0.76792814       0.73849902 </v>
    <v>       0.72113084       0.49016776       0.32550803 </v>
    <v>       0.44326803       0.87956058       0.46141100 </v>
    <v>       0.16575788       0.26777159       0.60068123 </v>
    <v>       0.88811426       0.65704036       0.73855178 </v>
    <v>       0.94339709       0.37944148       0.32546324 </v>
    <v>       0.66561897       0.76803226       0.46145424 </v>
    <v>       0.38812645       0.15689861       0.60068096 </v>
    <v>       0.10999939       0.54563890       0.73854078 </v>
    <v>       0.16540339       0.26828905       0.32549837 </v>
    <v>       0.88801009       0.65705684       0.46142432 </v>
    <v>       0.60964977       0.04641809       0.60066187 </v>
    <v>       0.33233474       0.43485855       0.73841137 </v>
    <v>       0.83241948       0.93476299       0.32559316 </v>
    <v>       0.55473029       0.32343935       0.46141383 </v>
    <v>       0.27709510       0.71195280       0.60068014 </v>
    <v>       0.99920735       0.10158504       0.73838175 </v>
    <v>       0.05431868       0.82393285       0.32546401 </v>
    <v>       0.77682606       0.21233262       0.46138101 </v>
    <v>       0.49869815       0.60181004       0.60066638 </v>
    <v>       0.22088240       0.99031583       0.73838987 </v>
    <v>       0.27690637       0.71217176       0.32562343 </v>
    <v>       0.99902542       0.10138003       0.46144622 </v>
    <v>       0.72118564       0.49003033       0.60052577 </v>
    <v>       0.44371879       0.87926253       0.73852820 </v>
    <v>       0.88790740       0.15684936       0.58764505 </v>
    <v>       0.60985500       0.54621144       0.72473453 </v>
    <v>       0.44360930       0.37898980       0.29777799 </v>
    <v>       0.16557477       0.76814280       0.44933848 </v>
    <v>       0.10978694       0.04623078       0.58772568 </v>
    <v>       0.83243114       0.43461463       0.72463686 </v>
    <v>       0.66553861       0.26823691       0.29772742 </v>
    <v>       0.38806591       0.65670766       0.44919012 </v>
    <v>       0.33233817       0.93474149       0.58766670 </v>
    <v>       0.05458880       0.32355060       0.72477280 </v>
    <v>       0.88798558       0.15671467       0.29790199 </v>
    <v>       0.61005247       0.54592250       0.44936553 </v>
    <v>       0.77674467       0.71261995       0.58762558 </v>
    <v>       0.49952076       0.10060077       0.72468996 </v>
    <v>       0.55447115       0.82374495       0.58774913 </v>
    <v>       0.27659843       0.21280810       0.72471073 </v>
    <v>       0.11005805       0.04586671       0.29768050 </v>
    <v>       0.83231095       0.43472220       0.44914766 </v>
    <v>       0.99917365       0.60124576       0.58768100 </v>
    <v>       0.72074477       0.99088495       0.72471987 </v>
    <v>       0.55452728       0.82362836       0.29763111 </v>
    <v>       0.27665224       0.21276219       0.44912574 </v>
    <v>       0.33228647       0.93475512       0.29780172 </v>
    <v>       0.05449368       0.32366933       0.44932363 </v>
    <v>       0.22103274       0.49063568       0.58762262 </v>
    <v>       0.94409645       0.87828615       0.72471419 </v>
    <v>       0.77668844       0.71269055       0.29782705 </v>
    <v>       0.49920077       0.10114504       0.44937851 </v>
    <v>       0.44357093       0.37898271       0.58768410 </v>
    <v>       0.16534748       0.76857704       0.72467220 </v>
    <v>       0.99924640       0.60113611       0.29764951 </v>
    <v>       0.72099044       0.99062702       0.44927241 </v>
    <v>       0.66544168       0.26831323       0.58770988 </v>
    <v>       0.38828870       0.65639168       0.72467297 </v>
    <v>       0.22116167       0.49047933       0.29785172 </v>
    <v>       0.94364508       0.87895488       0.44936888 </v>
   </varray>
  </structure>
  <varray name="forces" >
   <v>       0.09229360      -0.08791994       0.02159958 </v>
   <v>      -0.07140985       0.07429273      -0.04938471 </v>
   <v>      -0.00233705       0.00206807      -0.00841445 </v>
   <v>       0.09742150      -0.10241676      -0.02401896 </v>
   <v>       0.09259863      -0.09421472       0.02420852 </v>
   <v>       0.00138048      -0.00117649       0.08365355 </v>
   <v>      -0.06407394       0.06370099      -0.03041721 </v>
   <v>      -0.01260472      -0.02130775       0.09464354 </v>
   <v>      -0.01742331       0.01864224      -0.02421648 </v>
   <v>      -0.00776649      -0.00631669      -0.02087620 </v>
   <v>       0.09073202      -0.08892837      -0.02912947 </v>
   <v>       0.00694983       0.00776495      -0.02956863 </v>
   <v>      -0.01129947      -0.01761769       0.07894504 </v>
   <v>      -0.00370268      -0.00142443       0.09246543 </v>
   <v>      -0.00052226       0.00311927      -0.01446038 </v>
   <v>      -0.01237763      -0.00681710      -0.03172182 </v>
   <v>      -0.09671995       0.09864735       0.03186799 </v>
   <v>       0.06145856      -0.06048918      -0.02420789 </v>
   <v>       0.00347780      -0.00824670      -0.00860347 </v>
   <v>      -0.09887968       0.09575597      -0.02259726 </v>
   <v>       0.08998555      -0.08989347       0.01922607 </v>
   <v>       0.01647741       0.01728831       0.08927863 </v>
   <v>      -0.09082891       0.08851448       0.01657419 </v>
   <v>      -0.07544145       0.06815655      -0.03659919 </v>
   <v>      -0.01183072      -0.01120039       0.09473013 </v>
   <v>       0.05318217      -0.05291440      -0.01549715 </v>
   <v>      -0.01514190       0.02227356      -0.02197611 </v>
   <v>       0.01183745       0.01549878      -0.02019352 </v>
   <v>       0.01792572      -0.02531165      -0.02365643 </v>
   <v>       0.09784028      -0.09428925      -0.02680170 </v>
   <v>       0.00071209      -0.00176682      -0.03276908 </v>
   <v>      -0.08853673       0.08693200      -0.02989734 </v>
   <v>       0.09678592      -0.09248282       0.02803665 </v>
   <v>       0.00671934       0.00608963       0.08430754 </v>
   <v>      -0.11242130       0.10921942       0.04601201 </v>
   <v>      -0.07327714       0.08126193      -0.03505428 </v>
   <v>      -0.00179192      -0.00250309       0.08440581 </v>
   <v>       0.07119009      -0.07211426      -0.03477819 </v>
   <v>      -0.02173395       0.01728690      -0.02531847 </v>
   <v>       0.01874831       0.01655643      -0.02254045 </v>
   <v>       0.02273324      -0.01829313      -0.02070886 </v>
   <v>       0.10132945      -0.10083967      -0.01745774 </v>
   <v>      -0.00052560      -0.00301336      -0.03069726 </v>
   <v>      -0.10511996       0.09907282      -0.01313905 </v>
   <v>      -0.09919014       0.09773204       0.02755768 </v>
   <v>       0.07796533      -0.07862017      -0.03628426 </v>
   <v>       0.00394284      -0.00494068      -0.00724750 </v>
   <v>      -0.09410012       0.08892409      -0.02997640 </v>
   <v>       0.09573696      -0.09330427       0.02432860 </v>
   <v>       0.00377894      -0.00526172       0.08769705 </v>
   <v>      -0.09972643       0.09722257       0.02121623 </v>
   <v>      -0.06509431       0.07146744      -0.04018237 </v>
   <v>       0.00613201       0.00556111       0.08907770 </v>
   <v>       0.04890538      -0.05148839      -0.01630520 </v>
   <v>      -0.00221467       0.00569269      -0.01063372 </v>
   <v>       0.00197289      -0.00033687      -0.01875965 </v>
   <v>       0.00409585      -0.00010414       0.00208422 </v>
   <v>       0.09672231      -0.09848697      -0.02494109 </v>
   <v>      -0.00779529      -0.00474844      -0.03020063 </v>
   <v>      -0.09942436       0.11552925      -0.01051435 </v>
   <v>      -0.09879713       0.10566056       0.02645869 </v>
   <v>       0.06576506      -0.07103674      -0.03695923 </v>
   <v>       0.00389141      -0.01100956      -0.00800730 </v>
   <v>      -0.09771706       0.10091357      -0.01813505 </v>
   <v>       0.09687329      -0.09602603       0.02999915 </v>
   <v>      -0.01493138      -0.00973699       0.08682710 </v>
   <v>      -0.07636444       0.07968760      -0.03637436 </v>
   <v>      -0.00745338      -0.00967552       0.08572395 </v>
   <v>       0.00495819      -0.00709757       0.00363784 </v>
   <v>      -0.01146507      -0.01047472      -0.02455301 </v>
   <v>       0.10684981      -0.10959351      -0.01400923 </v>
   <v>       0.00025300      -0.00449520      -0.02943982 </v>
   <v>      -0.09123521       0.09576483       0.02192119 </v>
   <v>       0.06946983      -0.07062367      -0.03421385 </v>
   <v>       0.03293155      -0.02358501      -0.03451906 </v>
   <v>      -0.08489408       0.07795474      -0.04287885 </v>
   <v>       0.00333999      -0.00254133       0.08836658 </v>
   <v>      -0.00732690       0.00004142       0.09068634 </v>
   <v>      -0.00391418      -0.01705589      -0.02432211 </v>
   <v>       0.00165990       0.00154436      -0.03120227 </v>
   <v>       0.09374985      -0.09614884       0.02937267 </v>
   <v>      -0.09688852       0.09664051       0.02934746 </v>
   <v>      -0.07286556       0.06695985      -0.03819624 </v>
   <v>       0.06097035      -0.06623831      -0.03117854 </v>
   <v>      -0.01837726       0.02038699      -0.02116810 </v>
   <v>       0.01551094      -0.01846436      -0.01950379 </v>
   <v>       0.09522999      -0.10057480      -0.02194821 </v>
   <v>      -0.10779009       0.10808119      -0.01551619 </v>
   <v>       0.08831256      -0.09498171       0.03103286 </v>
   <v>       0.00385840       0.00535092       0.09324841 </v>
   <v>      -0.08280241       0.08339107       0.01544593 </v>
   <v>      -0.08344926       0.07099104      -0.04159832 </v>
   <v>      -0.00584489      -0.00965404       0.09300718 </v>
   <v>       0.07439360      -0.07173670      -0.03966831 </v>
   <v>      -0.00616149       0.00649975      -0.01108725 </v>
   <v>       0.01178487       0.01368305      -0.02115455 </v>
   <v>       0.01190530      -0.00604086      -0.01406148 </v>
   <v>       0.10603104      -0.10117978      -0.02706694 </v>
   <v>       0.01176233       0.00736887      -0.03762665 </v>
   <v>      -0.09166527       0.09548903      -0.02491634 </v>
   <v>       0.09181905      -0.09730716       0.03034783 </v>
   <v>       0.01052094       0.00656194       0.09072473 </v>
   <v>      -0.07544579       0.07444245      -0.03839481 </v>
   <v>       0.00107475       0.00331042       0.08063054 </v>
   <v>      -0.02232207       0.02613122      -0.02654806 </v>
   <v>       0.00715918       0.00191305      -0.02640073 </v>
   <v>       0.09478930      -0.09688042      -0.02704102 </v>
   <v>       0.00119448       0.00246067      -0.03613024 </v>
   <v>      -0.00562248      -0.00001178      -0.33144782 </v>
   <v>       0.01875948      -0.00667568       0.08966096 </v>
   <v>      -0.00506288       0.03108884       0.14615260 </v>
   <v>       0.00614407      -0.01054239       0.04956515 </v>
   <v>      -0.01462268       0.01690219      -0.31886641 </v>
   <v>      -0.00365112       0.02826614       0.08633308 </v>
   <v>       0.00479965       0.00030067       0.14933435 </v>
   <v>       0.00525506       0.00030029       0.05386412 </v>
   <v>       0.00155290      -0.00307515      -0.32218768 </v>
   <v>       0.02392663      -0.00377173       0.07373364 </v>
   <v>       0.00264709      -0.02433163       0.13686302 </v>
   <v>       0.00859717      -0.00913954       0.05020054 </v>
   <v>       0.00098752      -0.00302759      -0.33739856 </v>
   <v>      -0.01447110       0.00717805       0.09186382 </v>
   <v>       0.01583805      -0.02885134       0.14602080 </v>
   <v>      -0.00300809       0.00507290       0.04608252 </v>
   <v>       0.00744703       0.00314033      -0.33003036 </v>
   <v>       0.00802558       0.00348605       0.07381911 </v>
   <v>       0.01208106       0.01105192       0.13100221 </v>
   <v>       0.01506813       0.00230221       0.04845792 </v>
   <v>      -0.00109563       0.01306136      -0.32729558 </v>
   <v>       0.00426690       0.00747857       0.08457607 </v>
   <v>      -0.02921441       0.04128465       0.14525394 </v>
   <v>      -0.01350236       0.02050539       0.05974025 </v>
   <v>       0.01050545       0.00849641      -0.34174169 </v>
   <v>       0.01487312      -0.00354938       0.08465062 </v>
   <v>       0.01147966      -0.03518142       0.14584889 </v>
   <v>      -0.00952176       0.00103557       0.06390182 </v>
   <v>      -0.01094187       0.00281602      -0.32535802 </v>
   <v>       0.02199318      -0.01669108       0.08283889 </v>
   <v>      -0.03462643       0.00375891       0.14347095 </v>
   <v>      -0.01219946       0.00393124       0.05920313 </v>
   <v>       0.00639262      -0.02808637      -0.35635636 </v>
   <v>       0.00673425      -0.00304262       0.08665221 </v>
   <v>       0.00238873      -0.03075498       0.17124093 </v>
   <v>       0.00227033      -0.00791468       0.05294081 </v>
   <v>       0.00029013       0.00134901      -0.01404382 </v>
   <v>      -0.00043544      -0.00105835       0.15470526 </v>
   <v>      -0.00002253       0.00265484      -0.15856844 </v>
   <v>       0.00133972      -0.00141932       0.03818146 </v>
   <v>       0.00028953       0.00067119      -0.02045577 </v>
   <v>       0.00572862       0.00283202       0.15141577 </v>
   <v>       0.00289897      -0.00289944      -0.15798403 </v>
   <v>      -0.00031015      -0.00419533       0.04000835 </v>
   <v>       0.00100510      -0.00042688      -0.01505166 </v>
   <v>      -0.00101485      -0.00320294       0.15466745 </v>
   <v>       0.00078445      -0.00176312      -0.15769454 </v>
   <v>       0.00161735      -0.00154687       0.03818696 </v>
   <v>      -0.00287091      -0.00296162      -0.01455490 </v>
   <v>      -0.00363996       0.00026243       0.15734672 </v>
   <v>      -0.00211632       0.00205732      -0.01960784 </v>
   <v>       0.00334610      -0.00150886       0.14748008 </v>
   <v>       0.00227891      -0.00043763      -0.15537904 </v>
   <v>       0.00148227      -0.00318414       0.03922961 </v>
   <v>       0.00204449       0.00026756      -0.01845527 </v>
   <v>       0.00036236       0.00106994       0.15032538 </v>
   <v>       0.00018058      -0.00024438      -0.15773850 </v>
   <v>       0.00206555      -0.00031171       0.04370262 </v>
   <v>       0.00277027      -0.00095865      -0.15546462 </v>
   <v>       0.00052061      -0.00175438       0.04201166 </v>
   <v>       0.00247433       0.00154717      -0.01601472 </v>
   <v>      -0.00170070       0.00405264       0.15263799 </v>
   <v>       0.00226291      -0.00606105      -0.15404037 </v>
   <v>      -0.00337445       0.00112829       0.03925426 </v>
   <v>      -0.00254849      -0.00074168      -0.01584626 </v>
   <v>       0.00055014      -0.00019756       0.15364893 </v>
   <v>       0.00041599      -0.00156324      -0.15562637 </v>
   <v>      -0.00063027       0.00447079       0.04096135 </v>
   <v>      -0.00218001      -0.00705441      -0.01730672 </v>
   <v>      -0.00382364       0.00046224       0.15395911 </v>
   <v>       0.00069855      -0.00291311      -0.15646443 </v>
   <v>      -0.00130003       0.00221669       0.03485674 </v>
  </varray>
  <varray name="stress" >
   <v>       0.68292697      -4.70947491       0.01700217 </v>
   <v>      -4.70947489       1.22188356      -0.02350776 </v>
   <v>       0.01700219      -0.02350775      -0.52144645 </v>
  </varray>
  <energy>
   <i name="e_fr_energy">   -624.75959813 </i>
   <i name="e_wo_entrp">   -624.15177445 </i>
   <i name="e_0_energy">   -624.45568629 </i>
  </energy>
  <time name="totalsc"> 1043.08 1090.66</time>
 </calculation>
 <calculation>
  <scstep>
   <time name="dav">   37.40   38.53</time>
   <time name="total">   38.85   40.11</time>
   <dipole>
    <v name="dipole">      0.00000000       0.00000000       2.85741955 </v>
    <i name="Tr[quadrupol]"> -80173.51961607 </i>
    <i name="Echarged">      0.00000000 </i>
    <i name="Edipol_quadrupol">      0.00000000 </i>
    <i name="Eion">      0.00000000 </i>
   </dipole>
   <energy>
    <i name="alphaZ">    -22.13477923 </i>
    <i name="ewald">  25972.17874543 </i>
    <i name="hartreedc"> -55732.15802907 </i>
    <i name="XCdc">  -2136.26812531 </i>
    <i name="pawpsdc">  37682.98297464 </i>
    <i name="pawaedc"> -33715.49513188 </i>
    <i name="eentropy">     -0.59525547 </i>
    <i name="bandstr">  -3541.19476167 </i>
    <i name="atom">  30868.35515899 </i>
    <i name="e_fr_energy">   -624.32920357 </i>
    <i name="e_wo_entrp">   -623.73394810 </i>
    <i name="e_0_energy">   -624.03157583 </i>
   </energy>
  </scstep>
  <scstep>
   <time name="diag">    5.27    5.39</time>
   <time name="diis">   18.32   19.17</time>
   <time name="orth">    1.02    1.02</time>
   <time name="total">   26.16   27.72</time>
   <dipole>
    <v name="dipole">      0.00000000       0.00000000       3.11846718 </v>
    <i name="Tr[quadrupol]"> -80173.14567968 </i>
    <i name="Echarged">      0.00000000 </i>
    <i name="Edipol_quadrupol">      0.00000000 </i>
    <i name="Eion">      0.00000000 </i>
   </dipole>
   <energy>
    <i name="e_fr_energy">   -625.39033299 </i>
    <i name="e_wo_entrp">   -624.69739962 </i>
    <i name="e_0_energy">   -625.04386630 </i>
   </energy>
  </scstep>
  <scstep>
   <time name="diag">    5.28    5.64</time>
   <time name="diis">   20.82   21.48</time>
   <time name="orth">    1.09    1.14</time>
   <time name="total">   28.75   29.82</time>
   <dipole>
    <v name="dipole">      0.00000000       0.00000000       2.63289896 </v>
    <i name="Tr[quadrupol]"> -80172.51006108 </i>
    <i name="Echarged">      0.00000000 </i>
    <i name="Edipol_quadrupol">      0.00000000 </i>
    <i name="Eion">      0.00000000 </i>
   </dipole>
   <energy>
    <i name="e_fr_energy">   -625.83180188 </i>
    <i name="e_wo_entrp">   -625.41286671 </i>
    <i name="e_0_energy">   -625.62233429 </i>
   </energy>
  </scstep>
  <scstep>
   <time name="diag">    5.20    5.38</time>
   <time name="diis">   15.64   16.25</time>
   <time name="orth">    0.97    1.03</time>
   <time name="total">   23.39   24.31</time>
   <dipole>
    <v name="dipole">      0.00000000       0.00000000       2.52522380 </v>
    <i name="Tr[quadrupol]"> -80172.28571516 </i>
    <i name="Echarged">      0.00000000 </i>
    <i name="Edipol_quadrupol">      0.00000000 </i>
    <i name="Eion">      0.00000000 </i>
   </dipole>
   <energy>
    <i name="e_fr_energy">   -626.65681260 </i>
    <i name="e_wo_entrp">   -626.23813580 </i>
    <i name="e_0_energy">   -626.44747420 </i>
   </energy>
  </scstep>
  <scstep>
   <time name="diag">    5.25    5.63</time>
   <time name="diis">   17.32   17.73</time>
   <time name="orth">    0.98    0.98</time>
   <time name="total">   24.92   25.82</time>
   <dipole>
    <v name="dipole">      0.00000000       0.00000000       2.50384651 </v>
    <i name="Tr[quadrupol]"> -80172.22764034 </i>
    <i name="Echarged">      0.00000000 </i>
    <i name="Edipol_quadrupol">      0.00000000 </i>
    <i name="Eion">      0.00000000 </i>
   </dipole>
   <energy>
    <i name="e_fr_energy">   -626.92613608 </i>
    <i name="e_wo_entrp">   -626.46633522 </i>
    <i name="e_0_energy">   -626.69623565 </i>
   </energy>
  </scstep>
  <scstep>
   <time name="diag">    5.19    5.40</time>
