 running on  128 total cores
 distrk:  each k-point on  128 cores,    1 groups
 distr:  one band on   16 cores,    8 groups
 vasp.6.2.1 16May21 (build Dec 23 2021 00:35:04) complex                        
  
 POSCAR found type information on POSCAR NaO Cl
 POSCAR found :  3 types and     180 ions
 scaLAPACK will be used
 LDA part: xc-table for Pade appr. of Perdew
 -----------------------------------------------------------------------------
|                                                                             |
|           W    W    AA    RRRRR   N    N  II  N    N   GGGG   !!!           |
|           W    W   A  A   R    R  NN   N  II  NN   N  G    G  !!!           |
|           W    W  A    A  R    R  N N  N  II  N N  N  G       !!!           |
|           W WW W  AAAAAA  RRRRR   N  N N  II  N  N N  G  GGG   !            |
|           WW  WW  A    A  R   R   N   NN  II  N   NN  G    G                |
|           W    W  A    A  R    R  N    N  II  N    N   GGGG   !!!           |
|                                                                             |
|     The requested file  could not be found or opened for reading            |
|     k-point information. Automatic k-point generation is used as a          |
|     fallback, which may lead to unwanted results.                           |
|                                                                             |
 -----------------------------------------------------------------------------

 POSCAR, INCAR and KPOINTS ok, starting setup
 FFT: planning ...
 WAVECAR not read
 WARNING: random wavefunctions but no delay for mixing, default for NELMDL
 entering main loop
       N       E                     dE             d eps       ncg     rms          rms(c)
DAV:   1     0.485778522452E+04    0.48578E+04   -0.16985E+05  3224   0.915E+02
DAV:   2     0.517713878084E+03   -0.43401E+04   -0.41472E+04  4152   0.231E+02
DAV:   3    -0.781186952962E+03   -0.12989E+04   -0.12911E+04  4360   0.128E+02
DAV:   4    -0.822858055767E+03   -0.41671E+02   -0.41557E+02  3600   0.284E+01
DAV:   5    -0.824187576486E+03   -0.13295E+01   -0.13290E+01  4200   0.544E+00    0.640E+01
RMM:   6    -0.741150764120E+03    0.83037E+02   -0.62199E+02  3252   0.253E+01    0.108E+02
RMM:   7    -0.706586148426E+03    0.34565E+02   -0.20103E+02  3437   0.135E+01    0.321E+01
RMM:   8    -0.663408974633E+03    0.43177E+02   -0.15409E+01  3121   0.525E+00    0.244E+01
RMM:   9    -0.681300068858E+03   -0.17891E+02   -0.10385E+02  3402   0.796E+00    0.752E+01
RMM:  10    -0.619871518762E+03    0.61429E+02   -0.71182E+00  3258   0.285E+00    0.318E+01
RMM:  11    -0.620002797326E+03   -0.13128E+00   -0.17483E+00  3751   0.133E+00    0.318E+01
RMM:  12    -0.621165022504E+03   -0.11622E+01   -0.26119E-01  3777   0.531E-01    0.364E+01
RMM:  13    -0.623275687465E+03   -0.21107E+01   -0.18331E-01  3210   0.563E-01    0.375E+01
RMM:  14    -0.623314397530E+03   -0.38710E-01   -0.86009E-02  3499   0.464E-01    0.353E+01
RMM:  15    -0.623278857318E+03    0.35540E-01   -0.23281E-02  3248   0.275E-01    0.354E+01
RMM:  16    -0.622979109584E+03    0.29975E+00   -0.11612E-02  3317   0.156E-01    0.351E+01
RMM:  17    -0.623050772554E+03   -0.71663E-01   -0.62406E-03  3250   0.133E-01    0.353E+01
RMM:  18    -0.623510640463E+03   -0.45987E+00   -0.87017E-03  3317   0.121E-01    0.360E+01
RMM:  19    -0.623991035184E+03   -0.48039E+00   -0.33979E-02  3639   0.174E-01    0.383E+01
RMM:  20    -0.623886787911E+03    0.10425E+00   -0.88864E-01  5149   0.742E-01    0.438E+01
RMM:  21    -0.620686275549E+03    0.32005E+01   -0.95613E-01  5018   0.749E-01    0.389E+01
RMM:  22    -0.619779810517E+03    0.90647E+00   -0.21219E+00  5335   0.119E+00    0.383E+01
RMM:  23    -0.614568977543E+03    0.52108E+01   -0.23722E+00  5265   0.122E+00    0.174E+01
RMM:  24    -0.617691443882E+03   -0.31225E+01   -0.92463E-01  5208   0.998E-01    0.362E+01
RMM:  25    -0.615042606569E+03    0.26488E+01   -0.67504E-01  4876   0.706E-01    0.185E+01
RMM:  26    -0.614503525464E+03    0.53908E+00   -0.12232E-01  4865   0.442E-01    0.169E+01
RMM:  27    -0.614175280681E+03    0.32824E+00   -0.15998E-01  5058   0.394E-01    0.124E+01
RMM:  28    -0.614645818510E+03   -0.47054E+00   -0.23159E-01  5211   0.514E-01    0.121E+01
RMM:  29    -0.614752655743E+03   -0.10684E+00   -0.10576E-02  3570   0.202E-01    0.118E+01
RMM:  30    -0.614436016065E+03    0.31664E+00   -0.28507E-02  4331   0.183E-01    0.109E+01
RMM:  31    -0.614347072186E+03    0.88944E-01   -0.46297E-02  4683   0.223E-01    0.105E+01
RMM:  32    -0.614234498271E+03    0.11257E+00   -0.17425E-01  5262   0.458E-01    0.822E+00
RMM:  33    -0.614268891113E+03   -0.34393E-01   -0.60082E-02  4822   0.272E-01    0.768E+00
RMM:  34    -0.614241748498E+03    0.27143E-01   -0.14284E-02  4131   0.142E-01    0.731E+00
RMM:  35    -0.613949547705E+03    0.29220E+00   -0.60630E-02  4635   0.263E-01    0.511E+00
RMM:  36    -0.613813101826E+03    0.13645E+00   -0.78302E-02  4828   0.306E-01    0.471E+00
RMM:  37    -0.613735988226E+03    0.77114E-01   -0.12434E-02  3948   0.146E-01    0.393E+00
RMM:  38    -0.613693300181E+03    0.42688E-01   -0.32789E-02  4575   0.190E-01    0.276E+00
RMM:  39    -0.613713572618E+03   -0.20272E-01   -0.27727E-03  3336   0.776E-02    0.231E+00
RMM:  40    -0.613709272708E+03    0.42999E-02   -0.38053E-03  3643   0.678E-02    0.228E+00
RMM:  41    -0.613700762293E+03    0.85104E-02   -0.11046E-02  4343   0.120E-01    0.135E+00
RMM:  42    -0.613713341238E+03   -0.12579E-01   -0.24520E-03  3468   0.835E-02    0.141E+00
RMM:  43    -0.613713473765E+03   -0.13253E-03   -0.10046E-03  3320   0.491E-02    0.927E-01
RMM:  44    -0.613715415467E+03   -0.19417E-02   -0.63713E-04  3263   0.370E-02    0.105E+00
RMM:  45    -0.613714560494E+03    0.85497E-03   -0.57011E-04  3434   0.305E-02    0.705E-01
RMM:  46    -0.613715351803E+03   -0.79131E-03   -0.11312E-03  3682   0.370E-02    0.509E-01
RMM:  47    -0.613716559267E+03   -0.12075E-02   -0.42995E-04  3577   0.282E-02    0.379E-01
RMM:  48    -0.613717335992E+03   -0.77672E-03   -0.27244E-04  3409   0.222E-02    0.194E-01
RMM:  49    -0.613718278764E+03   -0.94277E-03   -0.14160E-04  3240   0.179E-02    0.204E-01
RMM:  50    -0.613718863604E+03   -0.58484E-03   -0.13085E-04  3420   0.127E-02    0.198E-01
RMM:  51    -0.613719255117E+03   -0.39151E-03   -0.16313E-04  3563   0.131E-02    0.139E-01
RMM:  52    -0.613719566917E+03   -0.31180E-03   -0.43535E-05  3585   0.767E-03    0.108E-01
RMM:  53    -0.613719858673E+03   -0.29176E-03   -0.46269E-05  3296   0.749E-03    0.945E-02
RMM:  54    -0.613720280625E+03   -0.42195E-03   -0.43504E-05  3385   0.666E-03    0.636E-02
RMM:  55    -0.613720529439E+03   -0.24881E-03   -0.17787E-05  3473   0.435E-03    0.711E-02
RMM:  56    -0.613720602161E+03   -0.72722E-04   -0.18651E-05  3560   0.507E-03    0.687E-02
RMM:  57    -0.613720624646E+03   -0.22486E-04   -0.39478E-06  3409   0.256E-03    0.553E-02
RMM:  58    -0.613720650781E+03   -0.26134E-04   -0.28921E-06  3251   0.162E-03    0.248E-02
RMM:  59    -0.613720672025E+03   -0.21244E-04   -0.19903E-06  3364   0.164E-03    0.167E-02
RMM:  60    -0.613720679388E+03   -0.73627E-05   -0.77803E-07  3259   0.118E-03    0.130E-02
RMM:  61    -0.613720677723E+03    0.16646E-05   -0.24700E-07  2776   0.653E-04    0.130E-02
RMM:  62    -0.613720682880E+03   -0.51569E-05   -0.42785E-07  2887   0.576E-04    0.699E-03
RMM:  63    -0.613720685319E+03   -0.24387E-05   -0.25705E-07  2988   0.494E-04    0.643E-03
RMM:  64    -0.613720686071E+03   -0.75260E-06   -0.76443E-08  2542   0.298E-04    0.404E-03
RMM:  65    -0.613720686558E+03   -0.48662E-06   -0.52838E-08  2316   0.205E-04    0.233E-03
RMM:  66    -0.613720686989E+03   -0.43088E-06   -0.55173E-08  2274   0.174E-04    0.241E-03
RMM:  67    -0.613720687083E+03   -0.93925E-07   -0.17980E-08  1981   0.129E-04    0.160E-03
RMM:  68    -0.613720687143E+03   -0.60565E-07   -0.15055E-08  1924   0.108E-04    0.132E-03
RMM:  69    -0.613720687162E+03   -0.19078E-07   -0.59526E-09  1784   0.797E-05    0.911E-04
RMM:  70    -0.613720687168E+03   -0.51732E-08   -0.49631E-09  1693   0.690E-05
   1 F= -.61372069E+03 E0= -.61336323E+03  d E =-.613721E+03
 curvature:   0.00 expect dE= 0.000E+00 dE for cont linesearch  0.000E+00
 trial: gam= 0.00000 g(F)=  0.241E+01 g(S)=  0.000E+00 ort = 0.000E+00 (trialstep = 0.100E+01)
 search vector abs. value=  0.241E+01
 bond charge predicted
       N       E                     dE             d eps       ncg     rms          rms(c)
DAV:   1    -0.615183662902E+03   -0.14630E+01   -0.24313E+02  3560   0.230E+01    0.495E+00
RMM:   2    -0.620387138735E+03   -0.52035E+01   -0.96463E+00  3559   0.439E+00    0.224E+01
RMM:   3    -0.616504112758E+03    0.38830E+01   -0.19703E+00  3251   0.192E+00    0.106E+01
RMM:   4    -0.617133439837E+03   -0.62933E+00   -0.10338E+00  3388   0.102E+00    0.106E+01
RMM:   5    -0.618132469175E+03   -0.99903E+00   -0.52316E-01  3360   0.647E-01    0.250E+01
RMM:   6    -0.617331158368E+03    0.80131E+00   -0.36037E-01  3287   0.600E-01    0.252E+01
RMM:   7    -0.616458532069E+03    0.87263E+00   -0.19105E-01  3383   0.470E-01    0.144E+01
RMM:   8    -0.616188573666E+03    0.26996E+00   -0.83834E-02  3329   0.319E-01    0.978E+00
RMM:   9    -0.616125534096E+03    0.63040E-01   -0.50557E-02  3365   0.243E-01    0.706E+00
RMM:  10    -0.616116548827E+03    0.89853E-02   -0.67819E-02  3526   0.224E-01    0.874E+00
RMM:  11    -0.616046312855E+03    0.70236E-01   -0.31786E-02  3637   0.173E-01    0.787E+00
RMM:  12    -0.615966201003E+03    0.80112E-01   -0.36602E-02  3710   0.196E-01    0.417E+00
RMM:  13    -0.616034782290E+03   -0.68581E-01   -0.24515E-02  3639   0.164E-01    0.827E+00
RMM:  14    -0.616037367425E+03   -0.25851E-02   -0.28659E-02  3843   0.183E-01    0.115E+01
RMM:  15    -0.615916134886E+03    0.12123E+00   -0.89427E-03  3518   0.164E-01    0.466E+00
RMM:  16    -0.615915886102E+03    0.24878E-03   -0.13821E-02  4068   0.136E-01    0.186E+00
RMM:  17    -0.615955439308E+03   -0.39553E-01   -0.65802E-03  3541   0.101E-01    0.581E+00
RMM:  18    -0.615921504241E+03    0.33935E-01   -0.48365E-03  3582   0.113E-01    0.430E+00
RMM:  19    -0.615906784177E+03    0.14720E-01   -0.47896E-03  3711   0.754E-02    0.147E+00
RMM:  20    -0.615921853878E+03   -0.15070E-01   -0.42299E-03  3803   0.789E-02    0.230E+00
RMM:  21    -0.615916667448E+03    0.51864E-02   -0.85467E-04  3264   0.592E-02    0.157E+00
RMM:  22    -0.615913769731E+03    0.28977E-02   -0.11388E-03  3544   0.294E-02    0.711E-01
RMM:  23    -0.615914784548E+03   -0.10148E-02   -0.41663E-04  3349   0.308E-02    0.464E-01
RMM:  24    -0.615914613780E+03    0.17077E-03   -0.17035E-04  3526   0.135E-02    0.218E-01
RMM:  25    -0.615914977595E+03   -0.36381E-03   -0.83045E-05  3299   0.986E-03    0.434E-01
RMM:  26    -0.615914821304E+03    0.15629E-03   -0.41794E-05  3354   0.710E-03    0.255E-01
RMM:  27    -0.615915009029E+03   -0.18772E-03   -0.47856E-05  3577   0.658E-03    0.119E-01
RMM:  28    -0.615915205545E+03   -0.19652E-03   -0.17760E-05  3407   0.495E-03    0.100E-01
RMM:  29    -0.615915293908E+03   -0.88362E-04   -0.91792E-06  3419   0.275E-03    0.786E-02
RMM:  30    -0.615915447715E+03   -0.15381E-03   -0.13875E-05  3519   0.288E-03    0.132E-01
RMM:  31    -0.615915557385E+03   -0.10967E-03   -0.15986E-05  3750   0.329E-03    0.392E-02
RMM:  32    -0.615915618188E+03   -0.60802E-04   -0.33076E-06  3389   0.284E-03    0.371E-02
RMM:  33    -0.615915649553E+03   -0.31365E-04   -0.12540E-06  3054   0.131E-03    0.135E-02
RMM:  34    -0.615915686953E+03   -0.37400E-04   -0.16104E-06  3265   0.887E-04    0.190E-02
RMM:  35    -0.615915709100E+03   -0.22148E-04   -0.92126E-07  3028   0.693E-04    0.586E-03
RMM:  36    -0.615915721440E+03   -0.12340E-04   -0.59808E-07  2846   0.515E-04    0.883E-03
RMM:  37    -0.615915727133E+03   -0.56923E-05   -0.37646E-07  2708   0.373E-04    0.664E-03
RMM:  38    -0.615915729471E+03   -0.23382E-05   -0.18803E-07  2527   0.259E-04    0.531E-03
RMM:  39    -0.615915730488E+03   -0.10175E-05   -0.10353E-07  2409   0.203E-04    0.349E-03
RMM:  40    -0.615915731045E+03   -0.55697E-06   -0.85898E-08  2372   0.188E-04    0.268E-03
RMM:  41    -0.615915731194E+03   -0.14875E-06   -0.27440E-08  1993   0.136E-04    0.194E-03
RMM:  42    -0.615915731233E+03   -0.39086E-07   -0.12065E-08  1870   0.976E-05    0.923E-04
RMM:  43    -0.615915731250E+03   -0.17077E-07   -0.51228E-09  1734   0.823E-05    0.160E-03
RMM:  44    -0.615915731261E+03   -0.10805E-07   -0.31981E-09  1590   0.618E-05    0.122E-03
RMM:  45    -0.615915731266E+03   -0.45839E-08   -0.16892E-09  1351   0.471E-05
   2 F= -.61591573E+03 E0= -.61554635E+03  d E =-.219504E+01
 ZBRENT: can't locate minimum, use default step
 trial-energy change:   -2.195044  1 .order   -2.192982   -2.414099   -1.971864
 step:   4.0000(harm=  5.4589)  dis= 0.18516  next Energy=  -620.309805 (dE=-0.659E+01)
 bond charge predicted
       N       E                     dE             d eps       ncg     rms          rms(c)
DAV:   1    -0.612121738654E+03    0.37940E+01   -0.21753E+03  3216   0.688E+01    0.167E+01
RMM:   2    -0.633277696470E+03   -0.21156E+02   -0.85423E+01  3388   0.138E+01    0.351E+01
RMM:   3    -0.628935647763E+03    0.43420E+01   -0.23947E+01  3394   0.661E+00    0.179E+01
RMM:   4    -0.625469982494E+03    0.34657E+01   -0.32980E+00  3331   0.274E+00    0.307E+01
RMM:   5    -0.623067506301E+03    0.24025E+01   -0.11469E+00  3522   0.133E+00    0.157E+01
RMM:   6    -0.622802415269E+03    0.26509E+00   -0.53952E-01  3564   0.682E-01    0.150E+01
RMM:   7    -0.621063611983E+03    0.17388E+01   -0.66609E-01  3419   0.732E-01    0.136E+01
RMM:   8    -0.620872009807E+03    0.19160E+00   -0.11669E-01  3515   0.390E-01    0.924E+00
RMM:   9    -0.620605943762E+03    0.26607E+00   -0.18080E-01  3406   0.334E-01    0.965E+00
RMM:  10    -0.620365009221E+03    0.24093E+00   -0.14500E-01  3620   0.287E-01    0.994E+00
RMM:  11    -0.620288318555E+03    0.76691E-01   -0.73950E-02  3757   0.248E-01    0.112E+01
RMM:  12    -0.620983678275E+03   -0.69536E+00   -0.21042E-01  3996   0.356E-01    0.262E+01
RMM:  13    -0.619913444022E+03    0.10702E+01   -0.10437E-01  3690   0.340E-01    0.105E+01
RMM:  14    -0.619873603722E+03    0.39840E-01   -0.36189E-02  3719   0.217E-01    0.950E+00
RMM:  15    -0.619898102425E+03   -0.24499E-01   -0.33491E-02  3686   0.192E-01    0.113E+01
RMM:  16    -0.619945823342E+03   -0.47721E-01   -0.34697E-02  3752   0.236E-01    0.152E+01
RMM:  17    -0.619840516975E+03    0.10531E+00   -0.87094E-03  3370   0.202E-01    0.119E+01
RMM:  18    -0.619752377855E+03    0.88139E-01   -0.11777E-01  4740   0.293E-01    0.611E+00
RMM:  19    -0.619799641184E+03   -0.47263E-01   -0.40319E-02  4462   0.283E-01    0.654E+00
RMM:  20    -0.619737977379E+03    0.61664E-01   -0.44292E-02  3885   0.179E-01    0.533E+00
RMM:  21    -0.619667556918E+03    0.70420E-01   -0.36802E-02  4183   0.212E-01    0.490E+00
RMM:  22    -0.619685489867E+03   -0.17933E-01   -0.23626E-02  4167   0.138E-01    0.569E+00
RMM:  23    -0.619657475594E+03    0.28014E-01   -0.12627E-02  3772   0.161E-01    0.393E+00
RMM:  24    -0.619656894475E+03    0.58112E-03   -0.56629E-03  3682   0.852E-02    0.324E+00
RMM:  25    -0.619644296082E+03    0.12598E-01   -0.71770E-03  3915   0.832E-02    0.289E+00
RMM:  26    -0.619643309704E+03    0.98638E-03   -0.50486E-03  3892   0.804E-02    0.284E+00
RMM:  27    -0.619634512901E+03    0.87968E-02   -0.19332E-03  3644   0.716E-02    0.164E+00
RMM:  28    -0.619633661195E+03    0.85171E-03   -0.12860E-03  3698   0.393E-02    0.108E+00
RMM:  29    -0.619633618966E+03    0.42228E-04   -0.53264E-04  3373   0.374E-02    0.959E-01
RMM:  30    -0.619633627864E+03   -0.88971E-05   -0.50303E-04  3597   0.218E-02    0.767E-01
RMM:  31    -0.619635046519E+03   -0.14187E-02   -0.53062E-04  3630   0.284E-02    0.622E-01
RMM:  32    -0.619635829548E+03   -0.78303E-03   -0.17314E-04  3376   0.218E-02    0.662E-01
RMM:  33    -0.619635344869E+03    0.48468E-03   -0.12680E-04  3482   0.133E-02    0.411E-01
RMM:  34    -0.619635526747E+03   -0.18188E-03   -0.13450E-04  3679   0.108E-02    0.285E-01
RMM:  35    -0.619635755269E+03   -0.22852E-03   -0.10868E-04  3714   0.891E-03    0.183E-01
RMM:  36    -0.619636109554E+03   -0.35429E-03   -0.82231E-05  3758   0.790E-03    0.138E-01
RMM:  37    -0.619636268597E+03   -0.15904E-03   -0.24443E-05  3530   0.488E-03    0.142E-01
RMM:  38    -0.619636376525E+03   -0.10793E-03   -0.16015E-05  3560   0.424E-03    0.713E-02
RMM:  39    -0.619636489404E+03   -0.11288E-03   -0.80782E-06  3544   0.330E-03    0.835E-02
RMM:  40    -0.619636565379E+03   -0.75975E-04   -0.61982E-06  3406   0.272E-03    0.701E-02
RMM:  41    -0.619636628516E+03   -0.63137E-04   -0.39126E-06  3429   0.198E-03    0.605E-02
RMM:  42    -0.619636674644E+03   -0.46128E-04   -0.31576E-06  3545   0.181E-03    0.278E-02
RMM:  43    -0.619636702166E+03   -0.27523E-04   -0.20696E-06  3305   0.124E-03    0.139E-02
RMM:  44    -0.619636716343E+03   -0.14176E-04   -0.12527E-06  3331   0.944E-04    0.151E-02
RMM:  45    -0.619636722956E+03   -0.66135E-05   -0.61072E-07  3088   0.612E-04    0.175E-02
RMM:  46    -0.619636726267E+03   -0.33114E-05   -0.35170E-07  2721   0.540E-04    0.107E-02
RMM:  47    -0.619636727795E+03   -0.15279E-05   -0.40693E-07  3295   0.535E-04    0.105E-02
RMM:  48    -0.619636728950E+03   -0.11549E-05   -0.16017E-07  2691   0.373E-04    0.865E-03
RMM:  49    -0.619636729457E+03   -0.50663E-06   -0.92212E-08  2440   0.256E-04    0.566E-03
RMM:  50    -0.619636729773E+03   -0.31637E-06   -0.68034E-08  2279   0.253E-04    0.475E-03
RMM:  51    -0.619636729815E+03   -0.41990E-07   -0.20671E-08  2012   0.135E-04    0.228E-03
RMM:  52    -0.619636729847E+03   -0.31279E-07   -0.11742E-08  1860   0.152E-04    0.850E-04
RMM:  53    -0.619636729856E+03   -0.96115E-08   -0.42662E-09  1628   0.800E-05
   3 F= -.61963673E+03 E0= -.61926197E+03  d E =-.591604E+01
 curvature:  -2.44 expect dE=-0.302E+01 dE for cont linesearch -0.210E+00
 ZBRENT: extrapolating
 opt :   4.9024  next Energy=  -619.842471 (dE=-0.612E+01)
 bond charge predicted
       N       E                     dE             d eps       ncg     rms          rms(c)
DAV:   1    -0.619284347256E+03    0.35238E+00   -0.19894E+02  3328   0.207E+01    0.406E+00
RMM:   2    -0.620407026698E+03   -0.11227E+01   -0.57141E+00  3262   0.383E+00    0.719E+00
RMM:   3    -0.620869188657E+03   -0.46216E+00   -0.14808E+00  3304   0.174E+00    0.110E+01
RMM:   4    -0.620846483119E+03    0.22706E-01   -0.70753E-01  3599   0.871E-01    0.140E+01
RMM:   5    -0.620682724742E+03    0.16376E+00   -0.27197E-01  3350   0.574E-01    0.120E+01
RMM:   6    -0.620329997586E+03    0.35273E+00   -0.27216E-01  3414   0.512E-01    0.123E+01
RMM:   7    -0.620037689397E+03    0.29231E+00   -0.93406E-02  3430   0.337E-01    0.820E+00
RMM:   8    -0.619907054893E+03    0.13063E+00   -0.67076E-02  3477   0.276E-01    0.569E+00
RMM:   9    -0.619929007394E+03   -0.21953E-01   -0.28797E-02  3455   0.197E-01    0.727E+00
RMM:  10    -0.619886754646E+03    0.42253E-01   -0.36746E-02  3631   0.209E-01    0.686E+00
RMM:  11    -0.619868438986E+03    0.18316E-01   -0.14851E-02  3498   0.181E-01    0.519E+00
RMM:  12    -0.619843901340E+03    0.24538E-01   -0.13128E-02  3647   0.129E-01    0.348E+00
RMM:  13    -0.619844205252E+03   -0.30391E-03   -0.63526E-03  3675   0.112E-01    0.272E+00
RMM:  14    -0.619880848482E+03   -0.36643E-01   -0.12187E-02  3736   0.109E-01    0.664E+00
RMM:  15    -0.619858421219E+03    0.22427E-01   -0.74303E-03  3717   0.119E-01    0.675E+00
RMM:  16    -0.619822360031E+03    0.36061E-01   -0.21365E-02  4429   0.129E-01    0.280E+00
RMM:  17    -0.619824110583E+03   -0.17506E-02   -0.14768E-02  4137   0.175E-01    0.157E+00
RMM:  18    -0.619820817224E+03    0.32934E-02   -0.42100E-03  3714   0.711E-02    0.134E+00
RMM:  19    -0.619822509681E+03   -0.16925E-02   -0.29074E-03  3849   0.491E-02    0.183E+00
RMM:  20    -0.619818636472E+03    0.38732E-02   -0.20725E-03  3678   0.482E-02    0.135E+00
RMM:  21    -0.619816990489E+03    0.16460E-02   -0.10435E-03  3654   0.287E-02    0.476E-01
RMM:  22    -0.619819498066E+03   -0.25076E-02   -0.52701E-04  3479   0.359E-02    0.661E-01
RMM:  23    -0.619819320240E+03    0.17783E-03   -0.21266E-04  3421   0.200E-02    0.616E-01
RMM:  24    -0.619818805781E+03    0.51446E-03   -0.12371E-04  3419   0.141E-02    0.252E-01
RMM:  25    -0.619819079084E+03   -0.27330E-03   -0.76239E-05  3528   0.103E-02    0.136E-01
RMM:  26    -0.619819199771E+03   -0.12069E-03   -0.24961E-05  3280   0.591E-03    0.100E-01
RMM:  27    -0.619819441625E+03   -0.24185E-03   -0.41572E-05  3537   0.511E-03    0.183E-01
RMM:  28    -0.619819561821E+03   -0.12020E-03   -0.33215E-05  3535   0.608E-03    0.873E-02
RMM:  29    -0.619819675651E+03   -0.11383E-03   -0.11576E-05  3737   0.324E-03    0.606E-02
RMM:  30    -0.619819824005E+03   -0.14835E-03   -0.10442E-05  3507   0.254E-03    0.458E-02
RMM:  31    -0.619819895876E+03   -0.71871E-04   -0.37573E-06  3432   0.174E-03    0.331E-02
RMM:  32    -0.619819967182E+03   -0.71306E-04   -0.43692E-06  3473   0.157E-03    0.289E-02
RMM:  33    -0.619820009772E+03   -0.42590E-04   -0.24594E-06  3479   0.143E-03    0.236E-02
RMM:  34    -0.619820027600E+03   -0.17828E-04   -0.91114E-07  3037   0.898E-04    0.642E-03
RMM:  35    -0.619820041252E+03   -0.13652E-04   -0.62844E-07  3163   0.628E-04    0.981E-03
RMM:  36    -0.619820052513E+03   -0.11260E-04   -0.72307E-07  3167   0.518E-04    0.638E-03
RMM:  37    -0.619820057527E+03   -0.50144E-05   -0.38862E-07  2900   0.421E-04    0.587E-03
RMM:  38    -0.619820059846E+03   -0.23192E-05   -0.26351E-07  2656   0.315E-04    0.645E-03
RMM:  39    -0.619820060686E+03   -0.84010E-06   -0.12978E-07  2463   0.303E-04    0.753E-03
RMM:  40    -0.619820060877E+03   -0.19052E-06   -0.65008E-08  2227   0.207E-04    0.152E-03
RMM:  41    -0.619820060999E+03   -0.12239E-06   -0.21331E-08  1990   0.178E-04    0.122E-03
RMM:  42    -0.619820061022E+03   -0.23065E-07   -0.80567E-09  1790   0.895E-05    0.955E-04
RMM:  43    -0.619820061035E+03   -0.13191E-07   -0.53379E-09  1695   0.774E-05    0.907E-04
RMM:  44    -0.619820061042E+03   -0.68248E-08   -0.24314E-09  1380   0.583E-05
   4 F= -.61982006E+03 E0= -.61945157E+03  d E =-.609937E+01
 curvature:  -2.39 expect dE=-0.422E+01 dE for cont linesearch -0.289E-02
 trial: gam= 0.75382 g(F)=  0.177E+01 g(S)=  0.000E+00 ort =-0.540E-01 (trialstep = 0.141E+01)
 search vector abs. value=  0.306E+01
 bond charge predicted
       N       E                     dE             d eps       ncg     rms          rms(c)
DAV:   1    -0.620313623684E+03   -0.49356E+00   -0.28332E+02  3264   0.219E+01    0.916E+00
RMM:   2    -0.625312339975E+03   -0.49987E+01   -0.12173E+01  3108   0.559E+00    0.120E+01
RMM:   3    -0.625518665387E+03   -0.20633E+00   -0.64068E+00  3599   0.302E+00    0.210E+01
RMM:   4    -0.624324107551E+03    0.11946E+01   -0.18744E+00  3215   0.142E+00    0.280E+01
RMM:   5    -0.623014284813E+03    0.13098E+01   -0.81528E-01  3502   0.839E-01    0.167E+01
RMM:   6    -0.622635402003E+03    0.37888E+00   -0.37204E-01  3451   0.580E-01    0.109E+01
RMM:   7    -0.622350034554E+03    0.28537E+00   -0.22167E-01  3484   0.414E-01    0.975E+00
RMM:   8    -0.622161023415E+03    0.18901E+00   -0.85022E-02  3521   0.278E-01    0.829E+00
RMM:   9    -0.621987555389E+03    0.17347E+00   -0.47142E-02  3556   0.188E-01    0.746E+00
RMM:  10    -0.621648564920E+03    0.33899E+00   -0.87551E-02  3652   0.253E-01    0.570E+00
RMM:  11    -0.621622343685E+03    0.26221E-01   -0.30106E-02  3601   0.231E-01    0.473E+00
RMM:  12    -0.621622071625E+03    0.27206E-03   -0.11380E-02  3536   0.146E-01    0.419E+00
RMM:  13    -0.621609841133E+03    0.12230E-01   -0.19068E-02  3650   0.142E-01    0.359E+00
RMM:  14    -0.621630303214E+03   -0.20462E-01   -0.20420E-02  3809   0.147E-01    0.408E+00
RMM:  15    -0.621642901437E+03   -0.12598E-01   -0.12831E-02  3866   0.121E-01    0.441E+00
RMM:  16    -0.621683160478E+03   -0.40259E-01   -0.31173E-02  4367   0.174E-01    0.575E+00
RMM:  17    -0.621660936314E+03    0.22224E-01   -0.87534E-03  3793   0.115E-01    0.528E+00
RMM:  18    -0.621608427398E+03    0.52509E-01   -0.20270E-02  4230   0.139E-01    0.372E+00
RMM:  19    -0.621574326692E+03    0.34101E-01   -0.18443E-02  4153   0.120E-01    0.278E+00
RMM:  20    -0.621571321539E+03    0.30052E-02   -0.61382E-03  3916   0.109E-01    0.126E+00
RMM:  21    -0.621573772399E+03   -0.24509E-02   -0.44670E-03  3874   0.733E-02    0.983E-01
RMM:  22    -0.621572759578E+03    0.10128E-02   -0.38344E-03  3856   0.554E-02    0.779E-01
RMM:  23    -0.621572081947E+03    0.67763E-03   -0.12621E-03  3581   0.404E-02    0.372E-01
RMM:  24    -0.621572735288E+03   -0.65334E-03   -0.10293E-03  3697   0.283E-02    0.695E-01
RMM:  25    -0.621571865835E+03    0.86945E-03   -0.33276E-04  3560   0.218E-02    0.478E-01
RMM:  26    -0.621571890121E+03   -0.24286E-04   -0.21772E-04  3451   0.155E-02    0.221E-01
RMM:  27    -0.621572187667E+03   -0.29755E-03   -0.99883E-05  3633   0.118E-02    0.212E-01
RMM:  28    -0.621572283885E+03   -0.96218E-04   -0.66062E-05  3466   0.711E-03    0.238E-01
RMM:  29    -0.621572564035E+03   -0.28015E-03   -0.75993E-05  3554   0.720E-03    0.230E-01
RMM:  30    -0.621572648465E+03   -0.84430E-04   -0.44610E-05  3605   0.544E-03    0.163E-01
RMM:  31    -0.621572775287E+03   -0.12682E-03   -0.32937E-05  3615   0.459E-03    0.819E-02
RMM:  32    -0.621572969643E+03   -0.19436E-03   -0.23244E-05  3749   0.412E-03    0.834E-02
RMM:  33    -0.621573053458E+03   -0.83815E-04   -0.66642E-06  3344   0.370E-03    0.506E-02
RMM:  34    -0.621573193810E+03   -0.14035E-03   -0.10629E-05  3509   0.243E-03    0.311E-02
RMM:  35    -0.621573245431E+03   -0.51622E-04   -0.31651E-06  3327   0.202E-03    0.167E-02
RMM:  36    -0.621573303034E+03   -0.57603E-04   -0.27707E-06  3276   0.121E-03    0.378E-02
RMM:  37    -0.621573336661E+03   -0.33627E-04   -0.22863E-06  3425   0.141E-03    0.270E-02
RMM:  38    -0.621573355449E+03   -0.18789E-04   -0.12979E-06  3112   0.778E-04    0.663E-03
RMM:  39    -0.621573368568E+03   -0.13119E-04   -0.99611E-07  3112   0.733E-04    0.649E-03
RMM:  40    -0.621573374297E+03   -0.57285E-05   -0.69660E-07  3091   0.472E-04    0.697E-03
RMM:  41    -0.621573376227E+03   -0.19303E-05   -0.33942E-07  2921   0.419E-04    0.622E-03
RMM:  42    -0.621573376615E+03   -0.38751E-06   -0.98847E-08  2441   0.258E-04    0.343E-03
RMM:  43    -0.621573376891E+03   -0.27678E-06   -0.56120E-08  2227   0.178E-04    0.295E-03
RMM:  44    -0.621573376941E+03   -0.49702E-07   -0.24074E-08  2000   0.126E-04    0.118E-03
RMM:  45    -0.621573376971E+03   -0.29730E-07   -0.77011E-09  1850   0.103E-04    0.930E-04
RMM:  46    -0.621573376974E+03   -0.27139E-08   -0.39240E-09  1702   0.724E-05
   5 F= -.62157338E+03 E0= -.62120887E+03  d E =-.175332E+01
 trial-energy change:   -1.753316  1 .order   -1.751391   -2.426191   -1.076591
 step:   2.5283(harm=  2.5283)  dis= 0.12318  next Energy=  -622.000856 (dE=-0.218E+01)
 bond charge predicted
       N       E                     dE             d eps       ncg     rms          rms(c)
DAV:   1    -0.621186796617E+03    0.38658E+00   -0.18061E+02  3312   0.176E+01    0.718E+00
RMM:   2    -0.625303952063E+03   -0.41172E+01   -0.79174E+00  3131   0.451E+00    0.115E+01
RMM:   3    -0.623559400793E+03    0.17446E+01   -0.40537E+00  3626   0.243E+00    0.114E+01
RMM:   4    -0.623737241497E+03   -0.17784E+00   -0.96078E-01  3275   0.104E+00    0.239E+01
RMM:   5    -0.622866867048E+03    0.87037E+00   -0.42224E-01  3391   0.652E-01    0.136E+01
RMM:   6    -0.622431120670E+03    0.43575E+00   -0.23369E-01  3432   0.513E-01    0.990E+00
RMM:   7    -0.622267860912E+03    0.16326E+00   -0.85315E-02  3369   0.365E-01    0.719E+00
RMM:   8    -0.622211067873E+03    0.56793E-01   -0.33320E-02  3590   0.203E-01    0.575E+00
RMM:   9    -0.622120064785E+03    0.91003E-01   -0.45035E-02  3456   0.168E-01    0.695E+00
RMM:  10    -0.622012660454E+03    0.10740E+00   -0.34591E-02  3524   0.204E-01    0.374E+00
RMM:  11    -0.622017723841E+03   -0.50634E-02   -0.11876E-02  3533   0.161E-01    0.319E+00
RMM:  12    -0.622006822120E+03    0.10902E-01   -0.15862E-02  3653   0.138E-01    0.235E+00
RMM:  13    -0.622020955106E+03   -0.14133E-01   -0.69295E-03  3677   0.891E-02    0.397E+00
RMM:  14    -0.622007971376E+03    0.12984E-01   -0.20774E-02  3935   0.140E-01    0.301E+00
RMM:  15    -0.622020243547E+03   -0.12272E-01   -0.14634E-02  3883   0.127E-01    0.349E+00
RMM:  16    -0.622023500052E+03   -0.32565E-02   -0.22443E-02  4386   0.162E-01    0.344E+00
RMM:  17    -0.622015580668E+03    0.79194E-02   -0.44415E-03  3668   0.811E-02    0.312E+00
RMM:  18    -0.621992990903E+03    0.22590E-01   -0.89409E-03  3958   0.911E-02    0.196E+00
RMM:  19    -0.621985276532E+03    0.77144E-02   -0.41359E-03  3759   0.685E-02    0.957E-01
RMM:  20    -0.621984727007E+03    0.54953E-03   -0.32231E-03  3892   0.552E-02    0.532E-01
RMM:  21    -0.621985164083E+03   -0.43708E-03   -0.16477E-03  3963   0.386E-02    0.303E-01
RMM:  22    -0.621985566848E+03   -0.40277E-03   -0.13090E-03  3625   0.306E-02    0.687E-01
RMM:  23    -0.621984585736E+03    0.98111E-03   -0.73582E-04  3614   0.264E-02    0.517E-01
RMM:  24    -0.621984191323E+03    0.39441E-03   -0.26363E-04  3478   0.233E-02    0.153E-01
RMM:  25    -0.621984476388E+03   -0.28506E-03   -0.18881E-04  3592   0.145E-02    0.115E-01
RMM:  26    -0.621984754118E+03   -0.27773E-03   -0.11863E-04  3650   0.100E-02    0.246E-01
RMM:  27    -0.621984733456E+03    0.20662E-04   -0.44884E-05  3335   0.819E-03    0.156E-01
RMM:  28    -0.621984926981E+03   -0.19353E-03   -0.82928E-05  3716   0.690E-03    0.130E-01
RMM:  29    -0.621985031283E+03   -0.10430E-03   -0.32923E-05  3548   0.567E-03    0.506E-02
RMM:  30    -0.621985134165E+03   -0.10288E-03   -0.13031E-05  3517   0.327E-03    0.318E-02
RMM:  31    -0.621985224147E+03   -0.89982E-04   -0.69897E-06  3514   0.222E-03    0.192E-02
RMM:  32    -0.621985331693E+03   -0.10755E-03   -0.66254E-06  3447   0.183E-03    0.190E-02
RMM:  33    -0.621985394060E+03   -0.62367E-04   -0.42418E-06  3329   0.149E-03    0.188E-02
RMM:  34    -0.621985430315E+03   -0.36254E-04   -0.19282E-06  3374   0.101E-03    0.158E-02
RMM:  35    -0.621985468244E+03   -0.37929E-04   -0.18048E-06  3045   0.928E-04    0.710E-03
RMM:  36    -0.621985501995E+03   -0.33751E-04   -0.26376E-06  3450   0.912E-04    0.742E-03
RMM:  37    -0.621985513812E+03   -0.11816E-04   -0.86586E-07  3169   0.557E-04    0.519E-03
RMM:  38    -0.621985520481E+03   -0.66689E-05   -0.81131E-07  3109   0.459E-04    0.612E-03
RMM:  39    -0.621985522094E+03   -0.16132E-05   -0.23018E-07  2710   0.350E-04    0.427E-03
RMM:  40    -0.621985523054E+03   -0.96044E-06   -0.17933E-07  2514   0.289E-04    0.302E-03
RMM:  41    -0.621985523314E+03   -0.26006E-06   -0.77668E-08  2297   0.182E-04    0.770E-04
RMM:  42    -0.621985523402E+03   -0.87763E-07   -0.20585E-08  1947   0.127E-04    0.145E-03
RMM:  43    -0.621985523428E+03   -0.25626E-07   -0.11159E-08  1898   0.102E-04    0.889E-04
RMM:  44    -0.621985523435E+03   -0.70941E-08   -0.39903E-09  1694   0.698E-05
   6 F= -.62198552E+03 E0= -.62162581E+03  d E =-.216546E+01
 curvature:  -2.24 expect dE=-0.103E+01 dE for cont linesearch -0.114E-02
 trial: gam= 0.12965 g(F)=  0.460E+00 g(S)=  0.000E+00 ort =-0.395E-01 (trialstep = 0.163E+01)
 search vector abs. value=  0.501E+00
 bond charge predicted
       N       E                     dE             d eps       ncg     rms          rms(c)
DAV:   1    -0.622175679434E+03   -0.19016E+00   -0.14508E+02  3264   0.167E+01    0.427E+00
RMM:   2    -0.622634525961E+03   -0.45885E+00   -0.42439E+00  3149   0.330E+00    0.574E+00
RMM:   3    -0.624408198724E+03   -0.17737E+01   -0.17451E+00  3742   0.169E+00    0.209E+01
RMM:   4    -0.624873376313E+03   -0.46518E+00   -0.74333E-01  3259   0.925E-01    0.227E+01
RMM:   5    -0.624370831969E+03    0.50254E+00   -0.52027E-01  3412   0.658E-01    0.138E+01
RMM:   6    -0.623556299398E+03    0.81453E+00   -0.40790E-01  3460   0.549E-01    0.184E+01
RMM:   7    -0.623032100923E+03    0.52420E+00   -0.15184E-01  3476   0.413E-01    0.825E+00
RMM:   8    -0.622807175441E+03    0.22493E+00   -0.83815E-02  3424   0.301E-01    0.648E+00
RMM:   9    -0.622741808143E+03    0.65367E-01   -0.38531E-02  3632   0.202E-01    0.590E+00
RMM:  10    -0.622722360985E+03    0.19447E-01   -0.25173E-02  3451   0.144E-01    0.515E+00
RMM:  11    -0.622688375985E+03    0.33985E-01   -0.35224E-02  3706   0.169E-01    0.632E+00
RMM:  12    -0.622667623370E+03    0.20753E-01   -0.13488E-02  3545   0.157E-01    0.512E+00
RMM:  13    -0.622644661223E+03    0.22962E-01   -0.19864E-02  3702   0.147E-01    0.427E+00
RMM:  14    -0.622637460333E+03    0.72009E-02   -0.71526E-03  3690   0.104E-01    0.344E+00
RMM:  15    -0.622635532636E+03    0.19277E-02   -0.13501E-02  4012   0.121E-01    0.325E+00
RMM:  16    -0.622625873594E+03    0.96590E-02   -0.86941E-03  3996   0.118E-01    0.218E+00
RMM:  17    -0.622621482712E+03    0.43909E-02   -0.78516E-03  4143   0.104E-01    0.125E+00
RMM:  18    -0.622622504423E+03   -0.10217E-02   -0.58508E-03  3908   0.891E-02    0.132E+00
RMM:  19    -0.622620983227E+03    0.15212E-02   -0.19955E-03  3680   0.468E-02    0.120E+00
RMM:  20    -0.622618526665E+03    0.24566E-02   -0.14038E-03  3496   0.383E-02    0.679E-01
RMM:  21    -0.622618842824E+03   -0.31616E-03   -0.97464E-04  3522   0.346E-02    0.319E-01
RMM:  22    -0.622619487470E+03   -0.64465E-03   -0.62734E-04  3490   0.259E-02    0.533E-01
RMM:  23    -0.622619017760E+03    0.46971E-03   -0.29413E-04  3504   0.205E-02    0.402E-01
RMM:  24    -0.622618864447E+03    0.15331E-03   -0.12717E-04  3728   0.111E-02    0.190E-01
RMM:  25    -0.622619056614E+03   -0.19217E-03   -0.50564E-05  3363   0.856E-03    0.102E-01
RMM:  26    -0.622619135270E+03   -0.78655E-04   -0.25103E-05  3311   0.605E-03    0.360E-02
RMM:  27    -0.622619204271E+03   -0.69001E-04   -0.16780E-05  3370   0.414E-03    0.418E-02
RMM:  28    -0.622619298130E+03   -0.93859E-04   -0.22586E-05  3486   0.376E-03    0.656E-02
RMM:  29    -0.622619356407E+03   -0.58278E-04   -0.11788E-05  3535   0.268E-03    0.439E-02
RMM:  30    -0.622619406958E+03   -0.50551E-04   -0.75315E-06  3670   0.240E-03    0.347E-02
RMM:  31    -0.622619450591E+03   -0.43632E-04   -0.45498E-06  3446   0.149E-03    0.346E-02
RMM:  32    -0.622619489019E+03   -0.38429E-04   -0.29922E-06  3408   0.126E-03    0.307E-02
RMM:  33    -0.622619526476E+03   -0.37457E-04   -0.28199E-06  3369   0.111E-03    0.177E-02
RMM:  34    -0.622619557430E+03   -0.30954E-04   -0.19600E-06  3367   0.900E-04    0.130E-02
RMM:  35    -0.622619585251E+03   -0.27822E-04   -0.19587E-06  3268   0.789E-04    0.181E-02
RMM:  36    -0.622619602102E+03   -0.16850E-04   -0.14767E-06  3180   0.715E-04    0.874E-03
RMM:  37    -0.622619608556E+03   -0.64547E-05   -0.51662E-07  2946   0.617E-04    0.101E-02
RMM:  38    -0.622619610918E+03   -0.23616E-05   -0.18652E-07  2711   0.320E-04    0.509E-03
RMM:  39    -0.622619612489E+03   -0.15712E-05   -0.10528E-07  2482   0.329E-04    0.348E-03
RMM:  40    -0.622619613520E+03   -0.10314E-05   -0.92627E-08  2365   0.178E-04    0.140E-03
RMM:  41    -0.622619613907E+03   -0.38690E-06   -0.33502E-08  1989   0.130E-04    0.125E-03
RMM:  42    -0.622619614128E+03   -0.22120E-06   -0.30332E-08  1964   0.101E-04    0.972E-04
RMM:  43    -0.622619614199E+03   -0.70315E-07   -0.14903E-08  1838   0.843E-05    0.953E-04
RMM:  44    -0.622619614212E+03   -0.13555E-07   -0.47956E-09  1565   0.637E-05    0.253E-04
RMM:  45    -0.622619614218E+03   -0.59881E-08   -0.22693E-09  1299   0.502E-05
   7 F= -.62261961E+03 E0= -.62226665E+03  d E =-.634091E+00
 trial-energy change:   -0.634091  1 .order   -0.633927   -0.742020   -0.525833
 step:   5.5974(harm=  5.5974)  dis= 0.10164  next Energy=  -623.258943 (dE=-0.127E+01)
 bond charge predicted
       N       E                     dE             d eps       ncg     rms          rms(c)
DAV:   1    -0.620288979312E+03    0.23306E+01   -0.85483E+02  3144   0.406E+01    0.128E+01
RMM:   2    -0.623066862093E+03   -0.27779E+01   -0.28641E+01  3143   0.849E+00    0.993E+00
RMM:   3    -0.631836455266E+03   -0.87696E+01   -0.14677E+01  3748   0.456E+00    0.339E+01
RMM:   4    -0.631914484103E+03   -0.78029E-01   -0.44302E+00  3291   0.208E+00    0.312E+01
RMM:   5    -0.629584935327E+03    0.23295E+01   -0.37638E+00  3565   0.137E+00    0.173E+01
RMM:   6    -0.626699715530E+03    0.28852E+01   -0.18425E+00  3462   0.998E-01    0.212E+01
RMM:   7    -0.625637165856E+03    0.10625E+01   -0.48067E-01  3707   0.591E-01    0.150E+01
RMM:   8    -0.624892449392E+03    0.74472E+00   -0.27420E-01  3410   0.442E-01    0.108E+01
RMM:   9    -0.624544075009E+03    0.34837E+00   -0.12859E-01  3410   0.316E-01    0.177E+01
RMM:  10    -0.624045398007E+03    0.49868E+00   -0.30742E-01  3744   0.382E-01    0.186E+01
RMM:  11    -0.623682153630E+03    0.36324E+00   -0.79968E-02  3500   0.350E-01    0.134E+01
RMM:  12    -0.623580190840E+03    0.10196E+00   -0.25108E-02  3421   0.227E-01    0.106E+01
RMM:  13    -0.623472117286E+03    0.10807E+00   -0.64265E-02  3593   0.227E-01    0.102E+01
RMM:  14    -0.623418112197E+03    0.54005E-01   -0.11106E-02  3539   0.156E-01    0.913E+00
RMM:  15    -0.623410859525E+03    0.72527E-02   -0.60195E-02  4060   0.188E-01    0.911E+00
RMM:  16    -0.623315735588E+03    0.95124E-01   -0.41229E-02  3996   0.272E-01    0.523E+00
RMM:  17    -0.623323105730E+03   -0.73701E-02   -0.22351E-02  3963   0.135E-01    0.548E+00
RMM:  18    -0.623306367468E+03    0.16738E-01   -0.79806E-02  4803   0.284E-01    0.634E+00
RMM:  19    -0.623251586171E+03    0.54781E-01   -0.26468E-02  4169   0.175E-01    0.416E+00
RMM:  20    -0.623283452493E+03   -0.31866E-01   -0.12655E-02  3848   0.137E-01    0.510E+00
RMM:  21    -0.623242200562E+03    0.41252E-01   -0.14379E-02  3880   0.133E-01    0.379E+00
RMM:  22    -0.623251342813E+03   -0.91423E-02   -0.99814E-03  3810   0.129E-01    0.320E+00
RMM:  23    -0.623239675084E+03    0.11668E-01   -0.33512E-03  3542   0.770E-02    0.250E+00
RMM:  24    -0.623236365370E+03    0.33097E-02   -0.52264E-03  3579   0.632E-02    0.224E+00
RMM:  25    -0.623237749403E+03   -0.13840E-02   -0.29534E-03  3460   0.728E-02    0.194E+00
RMM:  26    -0.623231849848E+03    0.58996E-02   -0.11927E-03  3515   0.548E-02    0.915E-01
RMM:  27    -0.623233263931E+03   -0.14141E-02   -0.52343E-04  3571   0.283E-02    0.761E-01
RMM:  28    -0.623233314836E+03   -0.50905E-04   -0.25692E-04  3474   0.208E-02    0.381E-01
RMM:  29    -0.623234332759E+03   -0.10179E-02   -0.19427E-04  3503   0.160E-02    0.629E-01
RMM:  30    -0.623233992784E+03    0.33998E-03   -0.84889E-05  3335   0.126E-02    0.456E-01
RMM:  31    -0.623234032098E+03   -0.39314E-04   -0.10773E-04  3529   0.922E-03    0.190E-01
RMM:  32    -0.623234365017E+03   -0.33292E-03   -0.59534E-05  3632   0.907E-03    0.211E-01
RMM:  33    -0.623234455823E+03   -0.90806E-04   -0.34835E-05  3573   0.708E-03    0.162E-01
RMM:  34    -0.623234581853E+03   -0.12603E-03   -0.27888E-05  3596   0.442E-03    0.112E-01
RMM:  35    -0.623234667030E+03   -0.85177E-04   -0.12433E-05  3657   0.323E-03    0.841E-02
RMM:  36    -0.623234749617E+03   -0.82588E-04   -0.98533E-06  3609   0.271E-03    0.674E-02
RMM:  37    -0.623234807914E+03   -0.58297E-04   -0.55319E-06  3555   0.205E-03    0.398E-02
RMM:  38    -0.623234873287E+03   -0.65373E-04   -0.58613E-06  3525   0.173E-03    0.333E-02
RMM:  39    -0.623234921053E+03   -0.47766E-04   -0.39254E-06  3471   0.134E-03    0.194E-02
RMM:  40    -0.623234969090E+03   -0.48037E-04   -0.44081E-06  3450   0.113E-03    0.206E-02
RMM:  41    -0.623234994749E+03   -0.25659E-04   -0.25224E-06  3387   0.835E-04    0.118E-02
RMM:  42    -0.623235001948E+03   -0.71990E-05   -0.54205E-07  2862   0.515E-04    0.693E-03
RMM:  43    -0.623235005069E+03   -0.31213E-05   -0.20611E-07  2605   0.357E-04    0.473E-03
RMM:  44    -0.623235007014E+03   -0.19454E-05   -0.13384E-07  2480   0.260E-04    0.383E-03
RMM:  45    -0.623235008561E+03   -0.15464E-05   -0.15097E-07  2412   0.229E-04    0.513E-03
RMM:  46    -0.623235009110E+03   -0.54996E-06   -0.76013E-08  2242   0.195E-04    0.452E-03
RMM:  47    -0.623235009251E+03   -0.14051E-06   -0.25518E-08  2045   0.141E-04    0.192E-03
RMM:  48    -0.623235009342E+03   -0.91328E-07   -0.17658E-08  1917   0.109E-04    0.140E-03
RMM:  49    -0.623235009360E+03   -0.17979E-07   -0.65593E-09  1775   0.863E-05    0.918E-04
RMM:  50    -0.623235009362E+03   -0.20809E-08   -0.36819E-09  1572   0.599E-05
   8 F= -.62323501E+03 E0= -.62289886E+03  d E =-.124949E+01
 curvature:  -3.08 expect dE=-0.990E+00 dE for cont linesearch -0.214E-02
 trial: gam= 0.71763 g(F)=  0.321E+00 g(S)=  0.000E+00 ort =-0.186E-01 (trialstep = 0.220E+01)
 search vector abs. value=  0.552E+00
 bond charge predicted
       N       E                     dE             d eps       ncg     rms          rms(c)
DAV:   1    -0.622956947592E+03    0.27806E+00   -0.21266E+02  3200   0.185E+01    0.669E+00
RMM:   2    -0.629092467608E+03   -0.61355E+01   -0.92639E+00  3303   0.420E+00    0.278E+01
RMM:   3    -0.624752145861E+03    0.43403E+01   -0.25058E+00  3370   0.217E+00    0.140E+01
RMM:   4    -0.625578627386E+03   -0.82648E+00   -0.21346E+00  3288   0.127E+00    0.985E+00
RMM:   5    -0.624927852075E+03    0.65078E+00   -0.84935E-01  3519   0.843E-01    0.173E+01
RMM:   6    -0.624390182840E+03    0.53767E+00   -0.24771E-01  3455   0.483E-01    0.114E+01
RMM:   7    -0.624049183771E+03    0.34100E+00   -0.23128E-01  3465   0.418E-01    0.933E+00
RMM:   8    -0.623965605664E+03    0.83578E-01   -0.51229E-02  3370   0.246E-01    0.746E+00
RMM:   9    -0.623891990134E+03    0.73616E-01   -0.77346E-02  3419   0.258E-01    0.750E+00
RMM:  10    -0.623854534311E+03    0.37456E-01   -0.13503E-02  3608   0.139E-01    0.680E+00
RMM:  11    -0.623768122621E+03    0.86412E-01   -0.43622E-02  3629   0.164E-01    0.495E+00
RMM:  12    -0.623766925326E+03    0.11973E-02   -0.12483E-02  3511   0.119E-01    0.511E+00
RMM:  13    -0.623766319365E+03    0.60596E-03   -0.82327E-03  3621   0.104E-01    0.557E+00
RMM:  14    -0.623711601372E+03    0.54718E-01   -0.13047E-02  3804   0.125E-01    0.216E+00
RMM:  15    -0.623760169231E+03   -0.48568E-01   -0.87088E-03  3604   0.101E-01    0.622E+00
RMM:  16    -0.623722248712E+03    0.37921E-01   -0.11534E-02  4000   0.141E-01    0.376E+00
RMM:  17    -0.623728634926E+03   -0.63862E-02   -0.87140E-03  4155   0.134E-01    0.397E+00
RMM:  18    -0.623714620149E+03    0.14015E-01   -0.37787E-03  3665   0.900E-02    0.237E+00
RMM:  19    -0.623717370440E+03   -0.27503E-02   -0.16821E-03  3499   0.579E-02    0.255E+00
RMM:  20    -0.623710429307E+03    0.69411E-02   -0.10238E-03  3443   0.402E-02    0.136E+00
RMM:  21    -0.623713561750E+03   -0.31324E-02   -0.96782E-04  3459   0.362E-02    0.131E+00
RMM:  22    -0.623712395554E+03    0.11662E-02   -0.72251E-04  3514   0.335E-02    0.531E-01
RMM:  23    -0.623713628401E+03   -0.12328E-02   -0.24504E-04  3391   0.280E-02    0.399E-01
RMM:  24    -0.623713490231E+03    0.13817E-03   -0.84675E-05  3348   0.133E-02    0.243E-01
RMM:  25    -0.623713436554E+03    0.53676E-04   -0.36144E-05  3441   0.764E-03    0.131E-01
RMM:  26    -0.623713476998E+03   -0.40443E-04   -0.22316E-05  3495   0.498E-03    0.128E-01
RMM:  27    -0.623713485661E+03   -0.86629E-05   -0.60194E-06  3357   0.414E-03    0.106E-01
RMM:  28    -0.623713479727E+03    0.59338E-05   -0.42280E-06  3343   0.216E-03    0.317E-02
RMM:  29    -0.623713495209E+03   -0.15483E-04   -0.24324E-06  3328   0.214E-03    0.383E-02
RMM:  30    -0.623713498644E+03   -0.34349E-05   -0.10537E-06  3439   0.119E-03    0.200E-02
RMM:  31    -0.623713501546E+03   -0.29022E-05   -0.57849E-07  3176   0.630E-04    0.103E-02
RMM:  32    -0.623713503614E+03   -0.20674E-05   -0.33413E-07  3021   0.444E-04    0.782E-03
RMM:  33    -0.623713504612E+03   -0.99868E-06   -0.15572E-07  2757   0.344E-04    0.613E-03
RMM:  34    -0.623713505135E+03   -0.52241E-06   -0.11447E-07  2535   0.230E-04    0.273E-03
RMM:  35    -0.623713505317E+03   -0.18192E-06   -0.36270E-08  2181   0.185E-04    0.240E-03
RMM:  36    -0.623713505372E+03   -0.54795E-07   -0.16405E-08  1998   0.123E-04    0.448E-04
RMM:  37    -0.623713505409E+03   -0.37355E-07   -0.79230E-09  1872   0.982E-05    0.966E-04
RMM:  38    -0.623713505430E+03   -0.21522E-07   -0.47344E-09  1723   0.676E-05    0.615E-04
RMM:  39    -0.623713505450E+03   -0.19762E-07   -0.31911E-09  1438   0.523E-05    0.640E-04
RMM:  40    -0.623713505464E+03   -0.14246E-07   -0.21464E-09  1236   0.462E-05    0.500E-04
RMM:  41    -0.623713505479E+03   -0.14894E-07   -0.21965E-09  1240   0.439E-05    0.351E-04
RMM:  42    -0.623713505489E+03   -0.94806E-08   -0.16203E-09  1123   0.408E-05
   9 F= -.62371351E+03 E0= -.62339273E+03  d E =-.478496E+00
 trial-energy change:   -0.478496  1 .order   -0.478191   -0.676773   -0.279609
 step:   3.7477(harm=  3.7477)  dis= 0.04686  next Energy=  -623.811625 (dE=-0.577E+00)
 bond charge predicted
       N       E                     dE             d eps       ncg     rms          rms(c)
DAV:   1    -0.623443460227E+03    0.27005E+00   -0.10544E+02  3280   0.130E+01    0.435E+00
RMM:   2    -0.625879362599E+03   -0.24359E+01   -0.42877E+00  3280   0.290E+00    0.153E+01
RMM:   3    -0.624547548171E+03    0.13318E+01   -0.12052E+00  3433   0.148E+00    0.135E+01
RMM:   4    -0.624713982163E+03   -0.16643E+00   -0.77751E-01  3272   0.850E-01    0.874E+00
RMM:   5    -0.624519205699E+03    0.19478E+00   -0.46702E-01  3437   0.603E-01    0.109E+01
RMM:   6    -0.624337274900E+03    0.18193E+00   -0.20492E-01  3520   0.394E-01    0.127E+01
RMM:   7    -0.623939681124E+03    0.39759E+00   -0.12018E-01  3452   0.321E-01    0.886E+00
RMM:   8    -0.623848190567E+03    0.91491E-01   -0.28368E-02  3317   0.217E-01    0.394E+00
RMM:   9    -0.623864000866E+03   -0.15810E-01   -0.14174E-02  3341   0.123E-01    0.457E+00
RMM:  10    -0.623833631949E+03    0.30369E-01   -0.25866E-02  3575   0.139E-01    0.314E+00
RMM:  11    -0.623841279008E+03   -0.76471E-02   -0.16228E-02  3705   0.117E-01    0.376E+00
RMM:  12    -0.623821422108E+03    0.19857E-01   -0.11436E-02  3664   0.125E-01    0.288E+00
RMM:  13    -0.623816729044E+03    0.46931E-02   -0.46866E-03  3528   0.894E-02    0.241E+00
RMM:  14    -0.623840132074E+03   -0.23403E-01   -0.80749E-03  3760   0.933E-02    0.434E+00
RMM:  15    -0.623820704851E+03    0.19427E-01   -0.89487E-03  3817   0.109E-01    0.349E+00
RMM:  16    -0.623811815391E+03    0.88895E-02   -0.35224E-03  3537   0.889E-02    0.213E+00
RMM:  17    -0.623810824267E+03    0.99112E-03   -0.23421E-03  3592   0.692E-02    0.152E+00
RMM:  18    -0.623808691957E+03    0.21323E-02   -0.86029E-04  3311   0.430E-02    0.619E-01
RMM:  19    -0.623811042530E+03   -0.23506E-02   -0.86816E-04  3605   0.316E-02    0.102E+00
RMM:  20    -0.623809525628E+03    0.15169E-02   -0.25559E-04  3395   0.242E-02    0.408E-01
RMM:  21    -0.623809865113E+03   -0.33949E-03   -0.18664E-04  3454   0.136E-02    0.219E-01
RMM:  22    -0.623809999800E+03   -0.13469E-03   -0.55288E-05  3412   0.121E-02    0.940E-02
RMM:  23    -0.623809999820E+03   -0.20133E-07   -0.17925E-05  3572   0.419E-03    0.373E-02
RMM:  24    -0.623810011581E+03   -0.11761E-04   -0.51157E-06  3239   0.269E-03    0.368E-02
RMM:  25    -0.623810019514E+03   -0.79328E-05   -0.23050E-06  3184   0.205E-03    0.169E-02
RMM:  26    -0.623810026137E+03   -0.66234E-05   -0.15720E-06  3423   0.123E-03    0.807E-03
RMM:  27    -0.623810030774E+03   -0.46372E-05   -0.70838E-07  3335   0.676E-04    0.157E-02
RMM:  28    -0.623810033298E+03   -0.25243E-05   -0.48238E-07  3159   0.557E-04    0.945E-03
RMM:  29    -0.623810034518E+03   -0.12200E-05   -0.26250E-07  3002   0.369E-04    0.335E-03
RMM:  30    -0.623810035106E+03   -0.58772E-06   -0.95270E-08  2485   0.240E-04    0.193E-03
RMM:  31    -0.623810035495E+03   -0.38875E-06   -0.85221E-08  2398   0.212E-04    0.126E-03
RMM:  32    -0.623810035568E+03   -0.72738E-07   -0.18730E-08  2022   0.126E-04    0.126E-03
RMM:  33    -0.623810035607E+03   -0.38919E-07   -0.78538E-09  1877   0.869E-05    0.823E-04
RMM:  34    -0.623810035641E+03   -0.34401E-07   -0.67218E-09  1767   0.691E-05    0.462E-04
RMM:  35    -0.623810035662E+03   -0.21035E-07   -0.33258E-09  1545   0.594E-05    0.432E-04
RMM:  36    -0.623810035681E+03   -0.18612E-07   -0.25751E-09  1255   0.463E-05    0.395E-04
RMM:  37    -0.623810035696E+03   -0.15709E-07   -0.28974E-09  1252   0.457E-05    0.274E-04
RMM:  38    -0.623810035703E+03   -0.69704E-08   -0.15094E-09  1080   0.412E-05
  10 F= -.62381004E+03 E0= -.62349832E+03  d E =-.575026E+00
 curvature:  -3.36 expect dE=-0.502E+00 dE for cont linesearch -0.578E-04
 trial: gam= 0.37469 g(F)=  0.149E+00 g(S)=  0.000E+00 ort =-0.308E-02 (trialstep = 0.251E+01)
 search vector abs. value=  0.224E+00
 bond charge predicted
       N       E                     dE             d eps       ncg     rms          rms(c)
DAV:   1    -0.623792860285E+03    0.17175E-01   -0.84792E+01  3248   0.943E+00    0.400E+00
RMM:   2    -0.624256813905E+03   -0.46395E+00   -0.31493E+00  3164   0.220E+00    0.767E+00
RMM:   3    -0.625106577322E+03   -0.84976E+00   -0.11686E+00  3618   0.123E+00    0.154E+01
RMM:   4    -0.625615619846E+03   -0.50904E+00   -0.79995E-01  3280   0.768E-01    0.905E+00
RMM:   5    -0.625279210950E+03    0.33641E+00   -0.42074E-01  3349   0.590E-01    0.194E+01
RMM:   6    -0.624463452278E+03    0.81576E+00   -0.20539E-01  3375   0.469E-01    0.108E+01
RMM:   7    -0.624364666484E+03    0.98786E-01   -0.46788E-02  3323   0.300E-01    0.656E+00
RMM:   8    -0.624359346557E+03    0.53199E-02   -0.25153E-02  3384   0.152E-01    0.708E+00
RMM:   9    -0.624309763703E+03    0.49583E-01   -0.29515E-02  3431   0.136E-01    0.860E+00
RMM:  10    -0.624170531066E+03    0.13923E+00   -0.33092E-02  3589   0.171E-01    0.547E+00
RMM:  11    -0.624152062908E+03    0.18468E-01   -0.71790E-03  3442   0.124E-01    0.365E+00
RMM:  12    -0.624148756216E+03    0.33067E-02   -0.55474E-03  3639   0.714E-02    0.339E+00
RMM:  13    -0.624128884355E+03    0.19872E-01   -0.90890E-03  3785   0.872E-02    0.256E+00
RMM:  14    -0.624145485175E+03   -0.16601E-01   -0.48521E-03  3660   0.871E-02    0.415E+00
RMM:  15    -0.624120307076E+03    0.25178E-01   -0.49027E-03  3694   0.884E-02    0.153E+00
RMM:  16    -0.624128601178E+03   -0.82941E-02   -0.77644E-03  4224   0.974E-02    0.230E+00
RMM:  17    -0.624121998344E+03    0.66028E-02   -0.21236E-03  3708   0.654E-02    0.130E+00
RMM:  18    -0.624121146428E+03    0.85192E-03   -0.17793E-03  3779   0.489E-02    0.812E-01
RMM:  19    -0.624121376358E+03   -0.22993E-03   -0.68704E-04  3465   0.365E-02    0.359E-01
RMM:  20    -0.624121628478E+03   -0.25212E-03   -0.49430E-04  3461   0.220E-02    0.373E-01
RMM:  21    -0.624121574009E+03    0.54469E-04   -0.16685E-04  3638   0.143E-02    0.260E-01
RMM:  22    -0.624121598714E+03   -0.24705E-04   -0.70760E-05  3476   0.918E-03    0.185E-01
RMM:  23    -0.624121660644E+03   -0.61930E-04   -0.33602E-05  3401   0.677E-03    0.136E-01
RMM:  24    -0.624121739329E+03   -0.78685E-04   -0.24552E-05  3485   0.562E-03    0.115E-01
RMM:  25    -0.624121779258E+03   -0.39929E-04   -0.99747E-06  3593   0.358E-03    0.617E-02
RMM:  26    -0.624121845420E+03   -0.66163E-04   -0.98491E-06  3321   0.274E-03    0.499E-02
RMM:  27    -0.624121891110E+03   -0.45689E-04   -0.49815E-06  3377   0.222E-03    0.508E-02
RMM:  28    -0.624121915468E+03   -0.24358E-04   -0.23676E-06  3563   0.121E-03    0.357E-02
RMM:  29    -0.624121932577E+03   -0.17109E-04   -0.13115E-06  3046   0.967E-04    0.165E-02
RMM:  30    -0.624121949206E+03   -0.16629E-04   -0.12995E-06  3236   0.881E-04    0.101E-02
RMM:  31    -0.624121957165E+03   -0.79596E-05   -0.58726E-07  3013   0.514E-04    0.108E-02
RMM:  32    -0.624121961075E+03   -0.39094E-05   -0.33101E-07  2708   0.404E-04    0.761E-03
RMM:  33    -0.624121962520E+03   -0.14450E-05   -0.12984E-07  2503   0.307E-04    0.409E-03
RMM:  34    -0.624121963423E+03   -0.90346E-06   -0.93421E-08  2353   0.219E-04    0.282E-03
RMM:  35    -0.624121963954E+03   -0.53048E-06   -0.74372E-08  2198   0.181E-04    0.430E-03
RMM:  36    -0.624121964066E+03   -0.11179E-06   -0.23421E-08  1967   0.133E-04    0.212E-03
RMM:  37    -0.624121964126E+03   -0.60812E-07   -0.15760E-08  1875   0.100E-04    0.151E-03
RMM:  38    -0.624121964145E+03   -0.18430E-07   -0.73954E-09  1774   0.909E-05    0.153E-03
RMM:  39    -0.624121964149E+03   -0.39581E-08   -0.36302E-09  1597   0.639E-05
  11 F= -.62412196E+03 E0= -.62381105E+03  d E =-.311928E+00
 trial-energy change:   -0.311928  1 .order   -0.311819   -0.371413   -0.252224
 step:   7.8184(harm=  7.8184)  dis= 0.08910  next Energy=  -624.388729 (dE=-0.579E+00)
 bond charge predicted
       N       E                     dE             d eps       ncg     rms          rms(c)
DAV:   1    -0.622739710957E+03    0.13823E+01   -0.37741E+02  3208   0.199E+01    0.117E+01
RMM:   2    -0.624947212190E+03   -0.22075E+01   -0.16587E+01  3185   0.477E+00    0.140E+01
RMM:   3    -0.628985651337E+03   -0.40384E+01   -0.94151E+00  3502   0.290E+00    0.146E+01
RMM:   4    -0.627956204561E+03    0.10294E+01   -0.33122E+00  3581   0.168E+00    0.187E+01
RMM:   5    -0.627435880507E+03    0.52032E+00   -0.11080E+00  3353   0.891E-01    0.122E+01
RMM:   6    -0.626116844453E+03    0.13190E+01   -0.88740E-01  3400   0.729E-01    0.183E+01
RMM:   7    -0.625571951223E+03    0.54489E+00   -0.13362E-01  3628   0.362E-01    0.956E+00
RMM:   8    -0.625498826138E+03    0.73125E-01   -0.28487E-02  3268   0.225E-01    0.836E+00
RMM:   9    -0.625455066456E+03    0.43760E-01   -0.51599E-02  3344   0.169E-01    0.129E+01
RMM:  10    -0.625303130004E+03    0.15194E+00   -0.18306E-01  3685   0.303E-01    0.177E+01
RMM:  11    -0.624898254842E+03    0.40488E+00   -0.53235E-02  3621   0.291E-01    0.114E+01
RMM:  12    -0.624821553236E+03    0.76702E-01   -0.28417E-02  3787   0.136E-01    0.937E+00
RMM:  13    -0.624694524342E+03    0.12703E+00   -0.52743E-02  3707   0.205E-01    0.748E+00
RMM:  14    -0.624617906812E+03    0.76618E-01   -0.53579E-02  3789   0.192E-01    0.905E+00
RMM:  15    -0.624498635989E+03    0.11927E+00   -0.25896E-02  3711   0.183E-01    0.538E+00
RMM:  16    -0.624475512702E+03    0.23123E-01   -0.39506E-02  4089   0.152E-01    0.791E+00
RMM:  17    -0.624476290763E+03   -0.77806E-03   -0.87109E-03  3559   0.166E-01    0.813E+00
RMM:  18    -0.624401490593E+03    0.74800E-01   -0.64644E-03  3633   0.114E-01    0.378E+00
RMM:  19    -0.624446446859E+03   -0.44956E-01   -0.13653E-02  4335   0.126E-01    0.657E+00
RMM:  20    -0.624389323536E+03    0.57123E-01   -0.10894E-02  4162   0.112E-01    0.305E+00
RMM:  21    -0.624399281860E+03   -0.99583E-02   -0.89182E-03  4247   0.104E-01    0.232E+00
RMM:  22    -0.624402165060E+03   -0.28832E-02   -0.32446E-03  3696   0.760E-02    0.216E+00
RMM:  23    -0.624396733517E+03    0.54315E-02   -0.30505E-03  3777   0.553E-02    0.145E+00
RMM:  24    -0.624398389625E+03   -0.16561E-02   -0.13371E-03  3773   0.492E-02    0.155E+00
RMM:  25    -0.624395548705E+03    0.28409E-02   -0.38415E-04  3404   0.291E-02    0.106E+00
RMM:  26    -0.624395260644E+03    0.28806E-03   -0.53852E-04  3496   0.208E-02    0.779E-01
RMM:  27    -0.624395202706E+03    0.57938E-04   -0.16026E-04  3452   0.210E-02    0.416E-01
RMM:  28    -0.624395566182E+03   -0.36348E-03   -0.15552E-04  3523   0.145E-02    0.306E-01
RMM:  29    -0.624395780390E+03   -0.21421E-03   -0.62865E-05  3385   0.112E-02    0.325E-01
RMM:  30    -0.624395755208E+03    0.25182E-04   -0.29495E-05  3633   0.629E-03    0.246E-01
RMM:  31    -0.624395769950E+03   -0.14742E-04   -0.18805E-05  3488   0.437E-03    0.140E-01
RMM:  32    -0.624395933466E+03   -0.16352E-03   -0.26605E-05  3547   0.488E-03    0.970E-02
RMM:  33    -0.624396042339E+03   -0.10887E-03   -0.14023E-05  3489   0.426E-03    0.116E-01
RMM:  34    -0.624396126155E+03   -0.83816E-04   -0.99542E-06  3725   0.326E-03    0.126E-01
RMM:  35    -0.624396157718E+03   -0.31563E-04   -0.57115E-06  3494   0.229E-03    0.590E-02
RMM:  36    -0.624396202777E+03   -0.45059E-04   -0.33559E-06  3506   0.196E-03    0.345E-02
RMM:  37    -0.624396233050E+03   -0.30273E-04   -0.25810E-06  3489   0.164E-03    0.160E-02
RMM:  38    -0.624396247188E+03   -0.14138E-04   -0.94860E-07  3198   0.102E-03    0.144E-02
RMM:  39    -0.624396258171E+03   -0.10983E-04   -0.83674E-07  3163   0.640E-04    0.819E-03
RMM:  40    -0.624396264016E+03   -0.58447E-05   -0.40315E-07  2882   0.466E-04    0.604E-03
RMM:  41    -0.624396267851E+03   -0.38350E-05   -0.32462E-07  3059   0.425E-04    0.147E-02
RMM:  42    -0.624396269453E+03   -0.16024E-05   -0.21217E-07  2647   0.340E-04    0.116E-02
RMM:  43    -0.624396270123E+03   -0.66943E-06   -0.10378E-07  2413   0.240E-04    0.705E-03
RMM:  44    -0.624396270631E+03   -0.50847E-06   -0.87860E-08  2321   0.222E-04    0.320E-03
RMM:  45    -0.624396270809E+03   -0.17805E-06   -0.21262E-08  1985   0.183E-04    0.278E-03
RMM:  46    -0.624396270913E+03   -0.10403E-06   -0.18570E-08  1980   0.136E-04    0.340E-03
RMM:  47    -0.624396270920E+03   -0.64538E-08   -0.10614E-08  1861   0.100E-04
  12 F= -.62439627E+03 E0= -.62408612E+03  d E =-.586235E+00
 curvature:  -5.93 expect dE=-0.879E+00 dE for cont linesearch -0.140E-03
 trial: gam= 1.00894 g(F)=  0.148E+00 g(S)=  0.000E+00 ort = 0.230E-02 (trialstep = 0.210E+01)
 search vector abs. value=  0.381E+00
 bond charge predicted
       N       E                     dE             d eps       ncg     rms          rms(c)
DAV:   1    -0.624147346620E+03    0.24892E+00   -0.15390E+02  3320   0.156E+01    0.453E+00
RMM:   2    -0.624707945416E+03   -0.56060E+00   -0.47737E+00  3188   0.296E+00    0.621E+00
RMM:   3    -0.626839132033E+03   -0.21312E+01   -0.17522E+00  3646   0.157E+00    0.214E+01
RMM:   4    -0.627329304324E+03   -0.49017E+00   -0.84757E-01  3361   0.903E-01    0.269E+01
RMM:   5    -0.626361466999E+03    0.96784E+00   -0.75856E-01  3439   0.682E-01    0.225E+01
RMM:   6    -0.625725031790E+03    0.63644E+00   -0.30463E-01  3448   0.471E-01    0.138E+01
RMM:   7    -0.625069370928E+03    0.65566E+00   -0.20437E-01  3423   0.377E-01    0.703E+00
RMM:   8    -0.624785084105E+03    0.28429E+00   -0.68821E-02  3359   0.243E-01    0.573E+00
RMM:   9    -0.624745144857E+03    0.39939E-01   -0.41690E-02  3586   0.150E-01    0.601E+00
RMM:  10    -0.624712081179E+03    0.33064E-01   -0.12587E-02  3519   0.939E-02    0.584E+00
RMM:  11    -0.624684495754E+03    0.27585E-01   -0.24534E-02  3522   0.129E-01    0.476E+00
RMM:  12    -0.624686610307E+03   -0.21146E-02   -0.19143E-02  3688   0.141E-01    0.494E+00
RMM:  13    -0.624672510987E+03    0.14099E-01   -0.24915E-02  3841   0.153E-01    0.411E+00
RMM:  14    -0.624667756574E+03    0.47544E-02   -0.57036E-03  3673   0.106E-01    0.400E+00
RMM:  15    -0.624656439223E+03    0.11317E-01   -0.13708E-02  3777   0.110E-01    0.348E+00
RMM:  16    -0.624648557082E+03    0.78821E-02   -0.79730E-03  3924   0.122E-01    0.248E+00
RMM:  17    -0.624646388979E+03    0.21681E-02   -0.55762E-03  3965   0.831E-02    0.236E+00
RMM:  18    -0.624644489851E+03    0.18991E-02   -0.60664E-03  3811   0.741E-02    0.166E+00
RMM:  19    -0.624641388792E+03    0.31011E-02   -0.19428E-03  3470   0.735E-02    0.534E-01
RMM:  20    -0.624642251579E+03   -0.86279E-03   -0.87455E-04  3334   0.356E-02    0.519E-01
RMM:  21    -0.624642039309E+03    0.21227E-03   -0.29695E-04  3351   0.240E-02    0.341E-01
RMM:  22    -0.624641961403E+03    0.77906E-04   -0.12673E-04  3506   0.119E-02    0.148E-01
RMM:  23    -0.624642043926E+03   -0.82523E-04   -0.39916E-05  3406   0.819E-03    0.703E-02
RMM:  24    -0.624642097696E+03   -0.53771E-04   -0.16697E-05  3518   0.499E-03    0.791E-02
RMM:  25    -0.624642126446E+03   -0.28749E-04   -0.73017E-06  3244   0.327E-03    0.624E-02
RMM:  26    -0.624642144574E+03   -0.18129E-04   -0.37481E-06  3345   0.252E-03    0.343E-02
RMM:  27    -0.624642158103E+03   -0.13529E-04   -0.16319E-06  3518   0.139E-03    0.306E-02
RMM:  28    -0.624642176273E+03   -0.18170E-04   -0.16438E-06  3262   0.109E-03    0.137E-02
RMM:  29    -0.624642197426E+03   -0.21154E-04   -0.15307E-06  3316   0.105E-03    0.204E-02
RMM:  30    -0.624642207994E+03   -0.10568E-04   -0.80193E-07  3190   0.752E-04    0.107E-02
RMM:  31    -0.624642216172E+03   -0.81778E-05   -0.59313E-07  3169   0.556E-04    0.369E-03
RMM:  32    -0.624642223952E+03   -0.77804E-05   -0.80401E-07  3058   0.481E-04    0.889E-03
RMM:  33    -0.624642225636E+03   -0.16841E-05   -0.19233E-07  2588   0.334E-04    0.276E-03
RMM:  34    -0.624642226673E+03   -0.10363E-05   -0.11016E-07  2421   0.247E-04    0.330E-03
RMM:  35    -0.624642227248E+03   -0.57503E-06   -0.75586E-08  2258   0.195E-04    0.269E-03
RMM:  36    -0.624642227440E+03   -0.19235E-06   -0.29068E-08  2042   0.148E-04    0.254E-03
RMM:  37    -0.624642227498E+03   -0.57560E-07   -0.12607E-08  1829   0.986E-05    0.116E-03
RMM:  38    -0.624642227545E+03   -0.47796E-07   -0.99975E-09  1841   0.904E-05    0.979E-04
RMM:  39    -0.624642227559E+03   -0.13766E-07   -0.44961E-09  1620   0.631E-05    0.572E-04
RMM:  40    -0.624642227567E+03   -0.82218E-08   -0.28424E-09  1293   0.489E-05
  13 F= -.62464223E+03 E0= -.62433482E+03  d E =-.245957E+00
 trial-energy change:   -0.245957  1 .order   -0.247069   -0.316509   -0.177628
 step:   5.1471(harm=  4.7887)  dis= 0.06723  next Energy=  -624.767583 (dE=-0.371E+00)
 bond charge predicted
       N       E                     dE             d eps       ncg     rms          rms(c)
DAV:   1    -0.623674999892E+03    0.96723E+00   -0.32291E+02  3280   0.224E+01    0.750E+00
RMM:   2    -0.624851884257E+03   -0.11769E+01   -0.10665E+01  3180   0.434E+00    0.718E+00
RMM:   3    -0.630421394444E+03   -0.55695E+01   -0.44151E+00  3684   0.233E+00    0.307E+01
RMM:   4    -0.629119661616E+03    0.13017E+01   -0.17634E+00  3248   0.123E+00    0.299E+01
RMM:   5    -0.626913661733E+03    0.22060E+01   -0.14082E+00  3569   0.856E-01    0.157E+01
RMM:   6    -0.625998689257E+03    0.91497E+00   -0.60114E-01  3452   0.581E-01    0.163E+01
RMM:   7    -0.625528062371E+03    0.47063E+00   -0.22603E-01  3357   0.435E-01    0.988E+00
RMM:   8    -0.625157127683E+03    0.37093E+00   -0.98124E-02  3330   0.296E-01    0.103E+01
RMM:   9    -0.625013535601E+03    0.14359E+00   -0.50569E-02  3384   0.235E-01    0.938E+00
RMM:  10    -0.624850793420E+03    0.16274E+00   -0.90553E-02  3645   0.237E-01    0.591E+00
RMM:  11    -0.624814510806E+03    0.36283E-01   -0.27920E-02  3527   0.164E-01    0.475E+00
RMM:  12    -0.624813703041E+03    0.80777E-03   -0.25042E-02  3622   0.134E-01    0.517E+00
RMM:  13    -0.624824307741E+03   -0.10605E-01   -0.18501E-02  3541   0.150E-01    0.657E+00
RMM:  14    -0.624792126747E+03    0.32181E-01   -0.30430E-02  3923   0.184E-01    0.413E+00
RMM:  15    -0.624841879731E+03   -0.49753E-01   -0.32891E-02  4203   0.188E-01    0.861E+00
RMM:  16    -0.624774881905E+03    0.66998E-01   -0.88555E-03  3615   0.157E-01    0.469E+00
RMM:  17    -0.624770348008E+03    0.45339E-02   -0.27291E-02  4309   0.162E-01    0.301E+00
RMM:  18    -0.624777836790E+03   -0.74888E-02   -0.80161E-03  3605   0.115E-01    0.375E+00
RMM:  19    -0.624753643318E+03    0.24193E-01   -0.73834E-03  3692   0.947E-02    0.167E+00
RMM:  20    -0.624764429466E+03   -0.10786E-01   -0.33789E-03  3615   0.838E-02    0.172E+00
RMM:  21    -0.624759568191E+03    0.48613E-02   -0.17293E-03  3364   0.564E-02    0.105E+00
RMM:  22    -0.624759427642E+03    0.14055E-03   -0.68468E-04  3237   0.353E-02    0.797E-01
RMM:  23    -0.624759361158E+03    0.66484E-04   -0.45096E-04  3443   0.263E-02    0.543E-01
RMM:  24    -0.624759243010E+03    0.11815E-03   -0.22011E-04  3458   0.178E-02    0.344E-01
RMM:  25    -0.624759409764E+03   -0.16675E-03   -0.71275E-05  3467   0.130E-02    0.321E-01
RMM:  26    -0.624759340064E+03    0.69699E-04   -0.26897E-05  3278   0.681E-03    0.180E-01
RMM:  27    -0.624759392388E+03   -0.52324E-04   -0.16776E-05  3317   0.474E-03    0.749E-02
RMM:  28    -0.624759474593E+03   -0.82206E-04   -0.90224E-06  3379   0.400E-03    0.742E-02
RMM:  29    -0.624759499930E+03   -0.25337E-04   -0.41350E-06  3616   0.251E-03    0.419E-02
RMM:  30    -0.624759526812E+03   -0.26882E-04   -0.22522E-06  3251   0.162E-03    0.314E-02
RMM:  31    -0.624759558162E+03   -0.31350E-04   -0.27390E-06  3341   0.139E-03    0.376E-02
RMM:  32    -0.624759573445E+03   -0.15282E-04   -0.14189E-06  3406   0.117E-03    0.224E-02
RMM:  33    -0.624759586221E+03   -0.12777E-04   -0.10544E-06  3260   0.734E-04    0.190E-02
RMM:  34    -0.624759592273E+03   -0.60521E-05   -0.63050E-07  3055   0.501E-04    0.747E-03
RMM:  35    -0.624759595656E+03   -0.33830E-05   -0.31448E-07  2804   0.513E-04    0.343E-03
RMM:  36    -0.624759597356E+03   -0.16994E-05   -0.21525E-07  2685   0.331E-04    0.519E-03
RMM:  37    -0.624759597778E+03   -0.42216E-06   -0.66766E-08  2267   0.193E-04    0.362E-03
RMM:  38    -0.624759597954E+03   -0.17609E-06   -0.28075E-08  2069   0.135E-04    0.185E-03
RMM:  39    -0.624759598072E+03   -0.11819E-06   -0.22901E-08  1985   0.118E-04    0.116E-03
RMM:  40    -0.624759598106E+03   -0.33790E-07   -0.83632E-09  1829   0.914E-05    0.846E-04
RMM:  41    -0.624759598123E+03   -0.17382E-07   -0.55979E-09  1697   0.664E-05    0.515E-04
RMM:  42    -0.624759598132E+03   -0.90367E-08   -0.29435E-09  1427   0.511E-05
  14 F= -.62475960E+03 E0= -.62445569E+03  d E =-.363327E+00
 curvature:  -5.96 expect dE=-0.807E+00 dE for cont linesearch -0.698E-03
 trial: gam= 0.97836 g(F)=  0.136E+00 g(S)=  0.000E+00 ort =-0.669E-02 (trialstep = 0.212E+01)
 search vector abs. value=  0.488E+00
 bond charge predicted
       N       E                     dE             d eps       ncg     rms          rms(c)
DAV:   1    -0.624329203569E+03    0.43039E+00   -0.19671E+02  3312   0.172E+01    0.571E+00
RMM:   2    -0.625390332988E+03   -0.10611E+01   -0.64653E+00  3145   0.331E+00    0.126E+01
RMM:   3    -0.625831801877E+03   -0.44147E+00   -0.21784E+00  3637   0.161E+00    0.113E+01
RMM:   4    -0.626656812602E+03   -0.82501E+00   -0.17580E+00  3276   0.100E+00    0.131E+01
RMM:   5    -0.626926136077E+03   -0.26932E+00   -0.98327E-01  3517   0.711E-01    0.125E+01
