unknown system                          
           1
   -17.605519  -26.520276    0.000000
    -6.844456  -24.673969    0.000000
     0.000000    0.000000   23.031449
   Na   O    Cl
   108    36    36
Direct configuration=     1
   0.52676446  0.96252979  0.26051335
   0.24898669  0.35141867  0.39736286
   0.97120891  0.74030756  0.53421237
   0.69343113  0.12919645  0.67106188
   0.74898669  0.85141867  0.26051335
   0.49898664  0.10141872  0.32893812
   0.47120891  0.24030756  0.39736286
   0.22120886  0.49030761  0.46578763
   0.19343113  0.62919645  0.53421237
   0.94343108  0.87919650  0.60263714
   0.91565335  0.01808534  0.67106188
   0.66565331  0.26808539  0.73948665
   0.72120886  0.99030761  0.32893812
   0.44343108  0.37919650  0.46578763
   0.16565331  0.76808539  0.60263714
   0.88787553  0.15697428  0.73948665
   0.69343098  0.12919666  0.26051335
   0.41565320  0.51808555  0.39736286
   0.13787542  0.90697444  0.53421237
   0.86009765  0.29586333  0.67106188
   0.63787557  0.40697423  0.26051335
   0.38787553  0.65697428  0.32893812
   0.91565320  0.01808555  0.26051335
   0.36009780  0.79586312  0.39736286
   0.11009775  0.04586317  0.46578763
   0.63787542  0.40697444  0.39736286
   0.08232002  0.18475201  0.53421237
   0.83231997  0.43475206  0.60263714
   0.36009765  0.79586333  0.53421237
   0.80454224  0.57364090  0.67106188
   0.55454220  0.82364095  0.73948665
   0.08231987  0.18475222  0.67106188
   0.86009780  0.29586312  0.26051335
   0.61009775  0.54586317  0.32893812
   0.13787542  0.90697444  0.26051335
   0.58232002  0.68475201  0.39736286
   0.33231997  0.93475206  0.46578763
   0.86009765  0.29586333  0.39736286
   0.30454224  0.07364090  0.53421237
   0.05454220  0.32364095  0.60263714
   0.58231987  0.68475222  0.53421237
   0.02676446  0.46252979  0.67106188
   0.77676442  0.71252984  0.73948665
   0.30454209  0.07364111  0.67106188
   0.58231987  0.68475222  0.26051335
   0.30454209  0.07364111  0.39736286
   0.02676431  0.46253000  0.53421237
   0.74898654  0.85141888  0.67106188
   0.08232002  0.18475201  0.26051335
   0.83231997  0.43475206  0.32893812
   0.36009765  0.79586333  0.26051335
   0.80454224  0.57364090  0.39736286
   0.55454219  0.82364095  0.46578763
   0.08231987  0.18475222  0.39736286
   0.52676446  0.96252979  0.53421237
   0.27676442  0.21252984  0.60263714
   0.80454209  0.57364111  0.53421237
   0.24898669  0.35141867  0.67106188
   0.99898664  0.60141872  0.73948665
   0.52676431  0.96253000  0.67106188
   0.80454209  0.57364111  0.26051335
   0.52676431  0.96253000  0.39736286
   0.24898654  0.35141888  0.53421237
   0.97120876  0.74030777  0.67106188
   0.30454224  0.07364090  0.26051335
   0.05454219  0.32364095  0.32893812
   0.02676446  0.46252979  0.39736286
   0.77676442  0.71252984  0.46578763
   0.74898669  0.85141867  0.53421237
   0.49898664  0.10141872  0.60263714
   0.47120891  0.24030756  0.67106188
   0.22120886  0.49030761  0.73948665
   0.02676431  0.46253000  0.26051335
   0.74898654  0.85141888  0.39736286
   0.47120876  0.24030777  0.53421237
   0.19343098  0.62919666  0.67106188
   0.27676442  0.21252984  0.32893812
   0.99898664  0.60141872  0.46578763
   0.72120886  0.99030761  0.60263714
   0.44343108  0.37919650  0.73948665
   0.97120891  0.74030756  0.26051335
   0.24898654  0.35141888  0.26051335
   0.69343113  0.12919645  0.39736286
   0.97120876  0.74030777  0.39736286
   0.41565335  0.51808534  0.53421237
   0.69343098  0.12919666  0.53421237
   0.13787557  0.90697423  0.67106188
   0.41565320  0.51808555  0.67106188
   0.19343113  0.62919645  0.26051335
   0.94343108  0.87919650  0.32893812
   0.47120876  0.24030777  0.26051335
   0.91565335  0.01808534  0.39736286
   0.66565331  0.26808539  0.46578763
   0.19343098  0.62919666  0.39736286
   0.63787557  0.40697423  0.53421237
   0.38787553  0.65697428  0.60263714
   0.91565320  0.01808555  0.53421237
   0.36009780  0.79586312  0.67106188
   0.11009775  0.04586317  0.73948665
   0.63787542  0.40697444  0.67106188
   0.41565335  0.51808534  0.26051335
   0.16565331  0.76808539  0.32893812
   0.13787557  0.90697423  0.39736286
   0.88787553  0.15697428  0.46578763
   0.86009780  0.29586312  0.53421237
   0.61009775  0.54586317  0.60263714
   0.58232002  0.68475201  0.67106188
   0.33231997  0.93475206  0.73948665
   0.38787554  0.15697427  0.32893812
   0.11009777  0.54586316  0.46578763
   0.83231999  0.93475205  0.60263714
   0.55454221  0.32364094  0.73948665
   0.61009777  0.04586316  0.32893812
   0.33231999  0.43475205  0.46578763
   0.05454221  0.82364094  0.60263714
   0.77676443  0.21252983  0.73948665
   0.49898665  0.60141872  0.32893812
   0.22120888  0.99030761  0.46578763
   0.94343110  0.37919649  0.60263714
   0.66565332  0.76808538  0.73948665
   0.72120888  0.49030761  0.32893812
   0.44343110  0.87919649  0.46578763
   0.16565332  0.26808538  0.60263714
   0.88787554  0.65697427  0.73948665
   0.94343110  0.37919649  0.32893812
   0.66565332  0.76808538  0.46578763
   0.38787554  0.15697427  0.60263714
   0.11009777  0.54586316  0.73948665
   0.16565332  0.26808538  0.32893812
   0.88787554  0.65697427  0.46578763
   0.61009777  0.04586316  0.60263714
   0.33231999  0.43475205  0.73948665
   0.83231999  0.93475205  0.32893812
   0.55454221  0.32364094  0.46578763
   0.27676443  0.71252983  0.60263714
   0.99898666  0.10141872  0.73948665
   0.05454221  0.82364094  0.32893812
   0.77676443  0.21252983  0.46578763
   0.49898666  0.60141872  0.60263714
   0.22120888  0.99030761  0.73948665
   0.27676443  0.71252983  0.32893812
   0.99898665  0.10141872  0.46578763
   0.72120888  0.49030761  0.60263714
   0.44343110  0.87919649  0.73948665
   0.88787553  0.15697428  0.60263712
   0.61009775  0.54586317  0.73948663
   0.44343097  0.37919666  0.32893810
   0.16565320  0.76808554  0.46578761
   0.11009775  0.04586317  0.60263712
   0.83231997  0.43475206  0.73948663
   0.66565320  0.26808554  0.32893810
   0.38787542  0.65697443  0.46578761
   0.33231997  0.93475206  0.60263712
   0.05454220  0.32364094  0.73948663
   0.88787542  0.15697443  0.32893810
   0.61009764  0.54586332  0.46578761
   0.77676442  0.71252983  0.60263712
   0.49898664  0.10141872  0.73948663
   0.55454220  0.82364094  0.60263712
   0.27676442  0.21252983  0.73948663
   0.11009764  0.04586332  0.32893810
   0.83231986  0.43475221  0.46578761
   0.99898664  0.60141872  0.60263712
   0.72120886  0.99030761  0.73948663
   0.55454209  0.82364110  0.32893810
   0.27676431  0.21252999  0.46578761
   0.33231986  0.93475221  0.32893810
   0.05454209  0.32364110  0.46578761
   0.22120886  0.49030761  0.60263712
   0.94343109  0.87919650  0.73948663
   0.77676431  0.71252999  0.32893810
   0.49898653  0.10141888  0.46578761
   0.44343109  0.37919650  0.60263712
   0.16565331  0.76808539  0.73948663
   0.99898653  0.60141888  0.32893810
   0.72120875  0.99030777  0.46578761
   0.66565331  0.26808539  0.60263712
   0.38787553  0.65697428  0.73948663
   0.22120875  0.49030777  0.32893810
   0.94343097  0.87919666  0.46578761
Direct configuration=     2
   0.52664185  0.96269993  0.26054338
   0.24896664  0.35145029  0.39794648
   0.97130719  0.74016236  0.53469208
   0.69553672  0.12625188  0.67230836
   0.74889819  0.85154728  0.26054271
   0.49900219  0.10141065  0.32963381
   0.47117918  0.24035038  0.39794069
   0.22120160  0.49030934  0.46633575
   0.19352293  0.62906846  0.53469857
   0.94343906  0.87918430  0.60367709
   0.91774453  0.01515403  0.67230843
   0.66565685  0.26808654  0.74149171
   0.72122810  0.99029816  0.32962817
   0.44345211  0.37916899  0.46633140
   0.16565329  0.76808363  0.60367890
   0.88785946  0.15698004  0.74149180
   0.69353845  0.12904600  0.26054920
   0.41571794  0.51799773  0.39795149
   0.13775716  0.90714394  0.53469370
   0.85799633  0.29880581  0.67230015
   0.63775368  0.40713753  0.26054573
   0.38788539  0.65696520  0.32962869
   0.91575551  0.01793561  0.26055263
   0.36008591  0.79587725  0.39793836
   0.11010771  0.04586759  0.46633349
   0.63787663  0.40696409  0.39793945
   0.08241245  0.18462365  0.53469383
   0.83229254  0.43476626  0.60367229
   0.35997670  0.79602368  0.53469854
   0.80662903  0.57071122  0.67230697
   0.55455541  0.82361944  0.74149650
   0.08021897  0.18769356  0.67230633
   0.85999812  0.29600420  0.26055113
   0.61009813  0.54586663  0.32963344
   0.13794010  0.90687538  0.26053908
   0.58229051  0.68479431  0.39794213
   0.33230380  0.93474834  0.46633115
   0.86014761  0.29579364  0.39794471
   0.30466146  0.07347415  0.53469165
   0.05454723  0.32363221  0.60367183
   0.58221275  0.68490951  0.53469139
   0.02888625  0.45956340  0.67230565
   0.77676654  0.71253485  0.74149435
   0.30241259  0.07661497  0.67230176
   0.58239213  0.68464872  0.26053724
   0.30459876  0.07356088  0.39796241
   0.02665575  0.46268197  0.53469298
   0.74688490  0.85437108  0.67230638
   0.08219207  0.18492597  0.26054455
   0.83231777  0.43473542  0.32962515
   0.36021082  0.79570564  0.26054895
   0.80449660  0.57370269  0.39795961
   0.55455708  0.82363165  0.46634562
   0.08233923  0.18472919  0.39794014
   0.52685570  0.96239900  0.53468840
   0.27677319  0.21253821  0.60367343
   0.80443486  0.57379131  0.53469970
   0.25109650  0.34846996  0.67231159
   0.99899600  0.60140506  0.74149622
   0.52469047  0.96544288  0.67230996
   0.80465038  0.57348531  0.26055304
   0.52678145  0.96250993  0.39793503
   0.24886268  0.35159881  0.53469674
   0.96911798  0.74323595  0.67230711
   0.30444696  0.07377260  0.26054859
   0.05452043  0.32366763  0.32963206
   0.02672281  0.46259625  0.39794487
   0.77676548  0.71254357  0.46632529
   0.74908632  0.85128411  0.53470563
   0.49899532  0.10141354  0.60367795
   0.47332733  0.23734155  0.67230142
   0.22120495  0.49032009  0.74148569
   0.02684916  0.46240991  0.26053711
   0.74906688  0.85131115  0.39796179
   0.47107623  0.24048427  0.53469659
   0.19131857  0.63216087  0.67230339
   0.27678743  0.21252730  0.32963046
   0.99897542  0.60141225  0.46633421
   0.72121449  0.99031065  0.60368223
   0.44344570  0.37917368  0.74148803
   0.97108719  0.74047729  0.26055093
   0.24909669  0.35127002  0.26054713
   0.69339040  0.12924687  0.39794594
   0.97123812  0.74026764  0.39794194
   0.41575340  0.51793620  0.53469276
   0.69330066  0.12937812  0.53469511
   0.13998885  0.90401730  0.67230146
   0.41352938  0.52105462  0.67230579
   0.19334459  0.62931750  0.26054246
   0.94342119  0.87919597  0.32962403
   0.47128784  0.24019544  0.26054267
   0.91565429  0.01808846  0.39793361
   0.66566936  0.26807637  0.46632161
   0.19347887  0.62912995  0.39795215
   0.63797703  0.40683630  0.53469358
   0.38786204  0.65697889  0.60367323
   0.91551642  0.01826900  0.53469786
   0.36221488  0.79289911  0.67229993
   0.11011227  0.04584478  0.74149446
   0.63577856  0.40991179  0.67230328
   0.41554220  0.51823565  0.26055033
   0.16565557  0.76807768  0.32963401
   0.13782873  0.90702747  0.39793664
   0.88786401  0.15697949  0.46633319
   0.86019099  0.29572758  0.53469755
   0.61011141  0.54584023  0.60368193
   0.58443799  0.68178698  0.67230383
   0.33231935  0.93473784  0.74149363
   0.38791225  0.15697969  0.32764064
   0.11008089  0.54585957  0.46490146
   0.83233348  0.93475520  0.60120860
   0.55454564  0.32363905  0.73777904
   0.61007477  0.04586533  0.32763953
   0.33233310  0.43475472  0.46489970
   0.05454488  0.82363954  0.60120780
   0.77674223  0.21252334  0.73777991
   0.49901288  0.60141541  0.32763977
   0.22117118  0.99030356  0.46490058
   0.94347190  0.37919830  0.60120637
   0.66560209  0.76807490  0.73778000
   0.72117183  0.49030158  0.32764083
   0.44346918  0.87919884  0.46490131
   0.16561388  0.26808351  0.60120655
   0.88792597  0.65698647  0.73777983
   0.94347017  0.37919751  0.32764027
   0.66561626  0.76808296  0.46490089
   0.38791342  0.15697897  0.60120719
   0.11006720  0.54585952  0.73778004
   0.16561722  0.26808197  0.32763907
   0.88790887  0.65698258  0.46490001
   0.61007309  0.04586675  0.60120678
   0.33233951  0.43475649  0.73777948
   0.83233259  0.93475719  0.32764082
   0.55454658  0.32363649  0.46490263
   0.27674861  0.71252688  0.60120827
   0.99901788  0.10142636  0.73777959
   0.05454573  0.82363784  0.32763903
   0.77675066  0.21252372  0.46490097
   0.49900919  0.60142102  0.60120678
   0.22115657  0.99029518  0.73777977
   0.27674969  0.71252410  0.32763995
   0.99900997  0.10141761  0.46490260
   0.72117054  0.49030245  0.60120702
   0.44348484  0.87920620  0.73777949
   0.88788415  0.15696261  0.60206841
   0.61009711  0.54586230  0.73757770
   0.44343050  0.37919658  0.32845471
   0.16565994  0.76807445  0.46510173
   0.11009691  0.04586302  0.60207318
   0.83231609  0.43475839  0.73757846
   0.66565169  0.26808832  0.32845425
   0.38788419  0.65696794  0.46510286
   0.33231875  0.93475241  0.60207067
   0.05454502  0.32363728  0.73757531
   0.88787612  0.15697165  0.32845873
   0.61010631  0.54585314  0.46510237
   0.77676081  0.71253507  0.60206764
   0.49899595  0.10141055  0.73757741
   0.55454649  0.82363703  0.60207596
   0.27675967  0.21253561  0.73757762
   0.11008984  0.04587258  0.32845783
   0.83231999  0.43475331  0.46510205
   0.99899339  0.60141172  0.60207312
   0.72120650  0.99031104  0.73757577
   0.55453976  0.82364437  0.32845431
   0.27676330  0.21253217  0.46510525
   0.33232303  0.93475069  0.32845632
   0.05454570  0.32363443  0.46510598
   0.22120776  0.49030899  0.60206782
   0.94343736  0.87919097  0.73757651
   0.77677120  0.71252279  0.32845509
   0.49899491  0.10141061  0.46510086
   0.44343958  0.37919036  0.60207130
   0.16564855  0.76808902  0.73757632
   0.99898429  0.60142299  0.32845685
   0.72120254  0.99031183  0.46510283
   0.66565300  0.26808507  0.60206971
   0.38788481  0.65696476  0.73757488
   0.22120487  0.49031519  0.32845626
   0.94344192  0.87918676  0.46510099
Direct configuration=     3
   0.52627402  0.96321037  0.26063345
   0.24890652  0.35154515  0.39969736
   0.97160205  0.73972673  0.53613121
   0.70185350  0.11741818  0.67604778
   0.74863270  0.85193308  0.26063077
   0.49904883  0.10138642  0.33172088
   0.47108998  0.24047882  0.39967418
   0.22117982  0.49031452  0.46798012
   0.19379832  0.62868449  0.53615718
   0.94346300  0.87914769  0.60679694
   0.92401806  0.00636011  0.67604808
   0.66566749  0.26808999  0.74750689
   0.72128580  0.99026979  0.33169832
   0.44351519  0.37908645  0.46796270
   0.16565323  0.76807836  0.60680419
   0.88781125  0.15699730  0.74750727
   0.69386087  0.12859400  0.26065675
   0.41591214  0.51773426  0.39971738
   0.13740235  0.90765242  0.53613771
   0.85169236  0.30763327  0.67601495
   0.63738801  0.40762742  0.26064287
   0.38791496  0.65693796  0.33170039
   0.91606244  0.01748580  0.26067048
   0.36005026  0.79591963  0.39966487
   0.11013761  0.04588085  0.46797107
   0.63788026  0.40693305  0.39966923
   0.08268975  0.18423859  0.53613820
   0.83221025  0.43480885  0.60677772
   0.35961385  0.79650473  0.53615705
   0.81288939  0.56192219  0.67604225
   0.55459506  0.82355492  0.74752603
   0.07391626  0.19651757  0.67603967
   0.85969910  0.29642746  0.26066449
   0.61009929  0.54587702  0.33171941
   0.13813414  0.90657821  0.26061626
   0.58220198  0.68492122  0.39967994
   0.33225527  0.93473718  0.46796173
   0.86029752  0.29558459  0.39969024
   0.30501911  0.07297391  0.53612949
   0.05456233  0.32360600  0.60677591
   0.58189138  0.68538138  0.53612845
   0.03525161  0.45066422  0.67603696
   0.77677290  0.71254988  0.74751745
   0.29602410  0.08553657  0.67602141
   0.58260893  0.68433822  0.26060890
   0.30476875  0.07332018  0.39976105
   0.02633007  0.46313789  0.53613480
   0.74057997  0.86322766  0.67603987
   0.08180824  0.18544785  0.26063814
   0.83231116  0.43468551  0.33168624
   0.36055034  0.79523255  0.26065576
   0.80435967  0.57388808  0.39974984
   0.55460175  0.82360376  0.46801958
   0.08239731  0.18466009  0.39967197
   0.52712940  0.96200666  0.53611650
   0.27679952  0.21256333  0.60678232
   0.80411316  0.57424192  0.53616168
   0.25742593  0.33962381  0.67606073
   0.99902407  0.60136406  0.74752495
   0.51846895  0.97418154  0.67605420
   0.80497524  0.57301794  0.26067211
   0.52683284  0.96244975  0.39965156
   0.24849110  0.35213860  0.53614987
   0.96284565  0.75202049  0.67604280
   0.30416113  0.07416772  0.26065432
   0.05445514  0.32374766  0.33171386
   0.02659783  0.46279563  0.39969088
   0.77676866  0.71258476  0.46793827
   0.74938522  0.85088042  0.53618540
   0.49902134  0.10139797  0.60680039
   0.47968261  0.22844349  0.67602005
   0.22119321  0.49035753  0.74748283
   0.02710371  0.46204967  0.26060839
   0.74930793  0.85098795  0.39975858
   0.47067865  0.24101375  0.53614927
   0.18498133  0.64105348  0.67602792
   0.27685648  0.21251971  0.33170746
   0.99894178  0.60139282  0.46797396
   0.72123138  0.99031978  0.60681751
   0.44348956  0.37910520  0.74749215
   0.97072204  0.74098648  0.26066365
   0.24942714  0.35082342  0.26064845
   0.69326820  0.12939813  0.39969517
   0.97132621  0.74014725  0.39967918
   0.41605354  0.51748876  0.53613392
   0.69290971  0.12992251  0.53614335
   0.14632869  0.89514652  0.67602019
   0.40715791  0.52996185  0.67603752
   0.19308499  0.62968065  0.26062977
   0.94339152  0.87919438  0.33168176
   0.47152511  0.23985844  0.26063062
   0.91565709  0.01809782  0.39964588
   0.66571752  0.26804931  0.46792354
   0.19362254  0.62892983  0.39972001
   0.63828140  0.40642249  0.53613721
   0.38782158  0.65699273  0.60678152
   0.91510607  0.01881935  0.53615433
   0.36856613  0.78400708  0.67601408
   0.11015584  0.04578960  0.74751790
   0.62948797  0.41872384  0.67602749
   0.41520876  0.51868659  0.26066128
   0.16566237  0.76805454  0.33172168
   0.13768819  0.90718719  0.39965798
   0.88782946  0.15699512  0.46796989
   0.86047059  0.29532096  0.53615307
   0.61015238  0.54577143  0.60681630
   0.59079192  0.67289190  0.67602966
   0.33231750  0.93469519  0.74751455
   0.38802236  0.15699594  0.32374818
   0.11003028  0.54584880  0.46224295
   0.83237396  0.93476464  0.59692298
   0.55455592  0.32363338  0.73265619
   0.61000576  0.04587184  0.32374377
   0.33237243  0.43476272  0.46223592
   0.05455289  0.82363534  0.59691979
   0.77667564  0.21250388  0.73265969
   0.49909157  0.60140551  0.32374473
   0.22105808  0.99029142  0.46223943
   0.94359429  0.37920371  0.59691405
   0.66544838  0.76804343  0.73266003
   0.72106067  0.49028349  0.32374895
   0.44358343  0.87920589  0.46224235
   0.16549554  0.26807789  0.59691477
   0.88807726  0.65702306  0.73265936
   0.94358740  0.37920055  0.32374671
   0.66550508  0.76807568  0.46224067
   0.38802706  0.15699308  0.59691732
   0.10997550  0.54584861  0.73266020
   0.16550891  0.26807174  0.32374193
   0.88800887  0.65700749  0.46223715
   0.60999907  0.04587752  0.59691570
   0.33239808  0.43476980  0.73265799
   0.83237039  0.93477261  0.32374890
   0.55455969  0.32362315  0.46224762
   0.27670113  0.71251802  0.59692165
   0.99911157  0.10144929  0.73265842
   0.05455630  0.82362856  0.32374176
   0.77670933  0.21250539  0.46224101
   0.49907679  0.60142791  0.59691572
   0.22099964  0.99025791  0.73265912
   0.27670545  0.71250693  0.32374544
   0.99907992  0.10141427  0.46224751
   0.72105553  0.49028698  0.59691665
   0.44364606  0.87923530  0.73265801
   0.88790999  0.15692759  0.60036228
   0.61009519  0.54585970  0.73185091
   0.44342910  0.37919637  0.32700452
   0.16568018  0.76804116  0.46304408
   0.11009437  0.04586258  0.60038135
   0.83230442  0.43477738  0.73185394
   0.66564716  0.26809663  0.32700268
   0.38791049  0.65694848  0.46304861
   0.33231509  0.93475348  0.60037131
   0.05455349  0.32362629  0.73184137
   0.88787823  0.15696332  0.32702062
   0.61013234  0.54582260  0.46304663
   0.77674998  0.71255077  0.60035919
   0.49902387  0.10138602  0.73184974
   0.55455935  0.82362529  0.60039248
   0.27674541  0.21255295  0.73185061
   0.11006642  0.04590036  0.32701701
   0.83232037  0.43475661  0.46304537
   0.99901365  0.60139071  0.60038112
   0.72119940  0.99032133  0.73184321
   0.55453278  0.82365419  0.32700292
   0.27676027  0.21253871  0.46305816
   0.33233255  0.93474611  0.32701099
   0.05455655  0.32361442  0.46306109
   0.22120444  0.49031311  0.60035992
   0.94345617  0.87917440  0.73184615
   0.77679186  0.71250119  0.32700605
   0.49902004  0.10138582  0.46304060
   0.44346507  0.37917195  0.60037386
   0.16563429  0.76809992  0.73184539
   0.99897758  0.60143532  0.32701310
   0.72118390  0.99032401  0.46304850
   0.66565207  0.26808412  0.60036748
   0.38791266  0.65693623  0.73183965
   0.22119323  0.49033747  0.32701073
   0.94347477  0.87915708  0.46304115
Direct configuration=     4
   0.52616338  0.96336391  0.26066054
   0.24888844  0.35157368  0.40022403
   0.97169074  0.73959570  0.53656411
   0.70375360  0.11476098  0.67717262
   0.74855285  0.85204913  0.26065726
   0.49906285  0.10137913  0.33234867
   0.47106316  0.24051746  0.40019561
   0.22117327  0.49031608  0.46847475
   0.19388115  0.62856899  0.53659593
   0.94347020  0.87913667  0.60773541
   0.92590516  0.00371487  0.67717297
   0.66567069  0.26809103  0.74931627
   0.72130316  0.99026125  0.33232103
   0.44353417  0.37906162  0.46845340
   0.16565321  0.76807678  0.60774429
   0.88779675  0.15700249  0.74931674
   0.69395786  0.12845804  0.26068910
   0.41597055  0.51765500  0.40024857
   0.13729563  0.90780538  0.53657207
   0.84979611  0.31028860  0.67713238
   0.63727801  0.40777478  0.26067210
   0.38792386  0.65692977  0.33232356
   0.91615477  0.01735050  0.26070593
   0.36003953  0.79593238  0.40018421
   0.11014660  0.04588484  0.46846366
   0.63788135  0.40692371  0.40018956
   0.08277317  0.18412276  0.53657267
   0.83218550  0.43482167  0.60771185
   0.35950470  0.79664943  0.53659578
   0.81477252  0.55927842  0.67716583
   0.55460699  0.82353552  0.74933974
   0.07202039  0.19917186  0.67716267
   0.85960915  0.29655478  0.26069858
   0.61009963  0.54588015  0.33234687
   0.13819251  0.90648882  0.26063948
   0.58217535  0.68495940  0.40020268
   0.33224067  0.93473383  0.46845221
   0.86034261  0.29552170  0.40021530
   0.30512669  0.07282344  0.53656200
   0.05456688  0.32359812  0.60770963
   0.58179471  0.68552332  0.53656072
   0.03716633  0.44798733  0.67715935
   0.77677481  0.71255441  0.74932922
   0.29410242  0.08822021  0.67714030
   0.58267414  0.68424483  0.26063046
   0.30481989  0.07324778  0.40030209
   0.02623210  0.46327504  0.53656851
   0.73868344  0.86589175  0.67716291
   0.08169278  0.18560483  0.26066629
   0.83230917  0.43467050  0.33230622
   0.36065247  0.79509025  0.26068789
   0.80431848  0.57394385  0.40028835
   0.55461519  0.82359537  0.46852311
   0.08241478  0.18463931  0.40019291
   0.52721173  0.96188864  0.53654607
   0.27680743  0.21257088  0.60771748
   0.80401639  0.57437746  0.53660145
   0.25932984  0.33696286  0.67718848
   0.99903251  0.60135173  0.74933840
   0.51659750  0.97681016  0.67718048
   0.80507296  0.57287735  0.26070793
   0.52684830  0.96243165  0.40016789
   0.24837933  0.35230097  0.53658697
   0.96095891  0.75466291  0.67716650
   0.30407516  0.07428658  0.26068613
   0.05443550  0.32377174  0.33234007
   0.02656024  0.46285561  0.40021609
   0.77676962  0.71259715  0.46842346
   0.74947513  0.85075899  0.53663052
   0.49902917  0.10139328  0.60773962
   0.48159429  0.22576693  0.67713862
   0.22118968  0.49036879  0.74928678
   0.02718028  0.46194130  0.26062983
   0.74938044  0.85089073  0.40029906
   0.47055905  0.24117302  0.53658624
   0.18307508  0.64372841  0.67714827
   0.27687725  0.21251742  0.33233223
   0.99893166  0.60138697  0.46846720
   0.72123647  0.99032252  0.60776061
   0.44350275  0.37908460  0.74929821
   0.97061220  0.74113965  0.26069756
   0.24952654  0.35068908  0.26067893
   0.69323144  0.12944363  0.40022135
   0.97135270  0.74011103  0.40020174
   0.41614382  0.51735417  0.53656743
   0.69279211  0.13008626  0.53657898
   0.14823573  0.89247816  0.67713879
   0.40524135  0.53264116  0.67716004
   0.19300690  0.62978988  0.26065603
   0.94338259  0.87919390  0.33230073
   0.47159648  0.23975708  0.26065708
   0.91565793  0.01810063  0.40016093
   0.66573201  0.26804117  0.46840540
   0.19366575  0.62886963  0.40025178
   0.63837295  0.40629802  0.53657146
   0.38780941  0.65699689  0.60771650
   0.91498263  0.01898489  0.53659244
   0.37047660  0.78133233  0.67713131
   0.11016895  0.04577301  0.74932977
   0.62759575  0.42137453  0.67714774
   0.41510845  0.51882223  0.26069465
   0.16566442  0.76804758  0.33234965
   0.13764591  0.90723524  0.40017577
   0.88781907  0.15699982  0.46846221
   0.86055469  0.29519865  0.53659090
   0.61016470  0.54575073  0.60775912
   0.59270320  0.67021624  0.67715041
   0.33231694  0.93468236  0.74932567
   0.38805548  0.15700083  0.32257732
   0.11001505  0.54584555  0.46144326
   0.83238613  0.93476748  0.59563386
   0.55455902  0.32363167  0.73111523
   0.60998501  0.04587380  0.32257191
   0.33238426  0.43476513  0.46143464
   0.05455530  0.82363407  0.59562994
   0.77665561  0.21249802  0.73111951
   0.49911524  0.60140253  0.32257309
   0.22102406  0.99028777  0.46143895
   0.94363111  0.37920534  0.59562291
   0.66540215  0.76803397  0.73111994
   0.72102724  0.49027805  0.32257826
   0.44361780  0.87920801  0.46144252
   0.16545994  0.26807620  0.59562379
   0.88812277  0.65703406  0.73111911
   0.94362266  0.37920146  0.32257552
   0.66547164  0.76807349  0.46144047
   0.38806125  0.15699732  0.59562692
   0.10994791  0.54584532  0.73112013
   0.16547633  0.26806866  0.32256966
   0.88803895  0.65701498  0.46143616
   0.60997681  0.04588076  0.59562493
   0.33241570  0.43477381  0.73111743
   0.83238176  0.93477725  0.32257820
   0.55456364  0.32361914  0.46144898
   0.27668685  0.71251536  0.59563222
   0.99913975  0.10145619  0.73111796
   0.05455948  0.82362576  0.32256945
   0.77669689  0.21249988  0.46144088
   0.49909713  0.60142999  0.59562495
   0.22095244  0.99024670  0.73111881
   0.27669214  0.71250176  0.32257396
   0.99910096  0.10141327  0.46144885
   0.72102093  0.49028233  0.59562609
   0.44369455  0.87924406  0.73111745
   0.88791777  0.15691705  0.59984908
   0.61009462  0.54585892  0.73012827
   0.44342867  0.37919631  0.32656830
   0.16568627  0.76803115  0.46242513
   0.11009361  0.04586244  0.59987245
   0.83230091  0.43478310  0.73013199
   0.66564579  0.26809913  0.32656605
   0.38791841  0.65694262  0.46243069
   0.33231398  0.93475380  0.59986013
   0.05455604  0.32362298  0.73011658
   0.88787886  0.15696081  0.32658804
   0.61014016  0.54581341  0.46242826
   0.77674672  0.71255549  0.59984528
   0.49903227  0.10137864  0.73012684
   0.55456322  0.82362176  0.59988608
   0.27674112  0.21255816  0.73012790
   0.11005938  0.04590872  0.32658360
   0.83232049  0.43475760  0.46242671
   0.99901974  0.60138439  0.59987216
   0.72119726  0.99032443  0.73011883
   0.55453068  0.82365714  0.32656634
   0.27675936  0.21254067  0.46244239
   0.33233541  0.93474474  0.32657623
   0.05455981  0.32360840  0.46244598
   0.22120345  0.49031435  0.59984618
   0.94346182  0.87916941  0.73012245
   0.77679808  0.71249469  0.32657017
   0.49902760  0.10137836  0.46242087
   0.44347273  0.37916641  0.59986326
   0.16563000  0.76810319  0.73012151
   0.99897556  0.60143903  0.32657881
   0.72117829  0.99032767  0.46243055
   0.66565179  0.26808383  0.59985544
   0.38792103  0.65692764  0.73011448
   0.22118973  0.49034417  0.32657591
   0.94348465  0.87914815  0.46242154
Direct configuration=     5
   0.52761564  0.96133754  0.26035861
   0.25140529  0.34806881  0.40005647
   0.97530935  0.73451377  0.53643225
   0.70846558  0.10817582  0.67816548
   0.75009079  0.84991541  0.26035223
   0.49907149  0.10135658  0.33380826
   0.47353317  0.23705794  0.40004915
   0.22118193  0.49032053  0.46974455
   0.19753591  0.62345892  0.53645346
   0.94350603  0.87910306  0.60911112
   0.93061054 -0.00287256  0.67816588
   0.66566920  0.26808553  0.75225431
   0.72126666  0.99027760  0.33377748
   0.44357961  0.37900216  0.46974566
   0.16569076  0.76803845  0.60911305
   0.88782307  0.15698077  0.75224672
   0.69240348  0.13062846  0.26037826
   0.41345976  0.52116637  0.40008649
   0.13366815  0.91288913  0.53644814
   0.84512916  0.31682059  0.67813919
   0.63875867  0.40569245  0.26035769
   0.38790108  0.65693307  0.33377135
   0.91463889  0.01946009  0.26042181
   0.36248196  0.79249371  0.40004537
   0.11010823  0.04590182  0.46973543
   0.63541600  0.41038147  0.40005967
   0.08640080  0.17903387  0.53646063
   0.83220526  0.43480338  0.60909646
   0.35583993  0.80175449  0.53647898
   0.81948324  0.55266695  0.67815258
   0.55462494  0.82352251  0.75231471
   0.06737551  0.20568406  0.67818187
   0.86117129  0.29436698  0.26037187
   0.61008644  0.54589958  0.33382152
   0.13667810  0.90858935  0.26035300
   0.58463818  0.68151165  0.40006249
   0.33229405  0.93468814  0.46971700
   0.85783679  0.29900732  0.40005901
   0.30887685  0.06758758  0.53641806
   0.05456191  0.32360849  0.60910562
   0.57817251  0.69060165  0.53645747
   0.04177716  0.44152138  0.67817873
   0.77676878  0.71257929  0.75225299
   0.28939084  0.09481694  0.67814783
   0.58117171  0.68633801  0.26033570
   0.30225958  0.07683445  0.40011392
   0.02261921  0.46834181  0.53646967
   0.73399264  0.87246041  0.67816797
   0.08316643  0.18354572  0.26035764
   0.83234497  0.43462922  0.33374998
   0.35917104  0.79716996  0.26039128
   0.80681413  0.57046014  0.40011954
   0.55462570  0.82357266  0.46979782
   0.07996314  0.18808198  0.40007381
   0.53082395  0.95683277  0.53642948
   0.27677916  0.21261347  0.60909407
   0.80031563  0.57955904  0.53647550
   0.26406619  0.33033820  0.67818156
   0.99906943  0.60130363  0.75229830
   0.51195638  0.98331109  0.67821166