 268 268   0   0
  0.2624791E+02  0.1259686E-08  0.1781465E-08  0.4433071E-08  0.5000000E-15
  1.000000000000000E-004
  CAR 
 unknown system                          
      5.97011949    -16.25454843  301      1.51167076      1.00000000
    -16.255  0.0000E+00  0.0000E+00
    -16.180  0.0000E+00  0.0000E+00
    -16.106  0.0000E+00  0.0000E+00
    -16.032  0.0000E+00  0.0000E+00
    -15.958  0.0000E+00  0.0000E+00
    -15.884  0.0000E+00  0.0000E+00
    -15.810  0.0000E+00  0.0000E+00
    -15.736  0.0000E+00  0.0000E+00
    -15.662  0.0000E+00  0.0000E+00
    -15.588  0.0000E+00  0.0000E+00
    -15.514  0.0000E+00  0.0000E+00
    -15.440  0.0000E+00  0.0000E+00
    -15.366  0.0000E+00  0.0000E+00
    -15.291  0.2202E-12  0.1631E-13
    -15.217  0.3405E-01  0.2522E-02
    -15.143  0.1612E+00  0.1447E-01
    -15.069  0.2574E+00  0.3382E-01
    -14.995  0.3884E+00  0.6285E-01
    -14.921  0.2647E+00  0.8249E-01
    -14.847  0.6279E-01  0.8715E-01
    -14.773  0.8548E-01  0.9393E-01
    -14.699  0.1968E+00  0.1085E+00
    -14.625  0.4281E+00  0.1405E+00
    -14.551  0.1550E+00  0.1525E+00
    -14.477  0.1012E+00  0.1600E+00
    -14.402  0.0000E+00  0.1600E+00
    -14.328  0.0000E+00  0.1600E+00
    -14.254  0.0000E+00  0.1600E+00
    -14.180  0.0000E+00  0.1600E+00
    -14.106  0.0000E+00  0.1600E+00
    -14.032  0.0000E+00  0.1600E+00
    -13.958  0.0000E+00  0.1600E+00
    -13.884  0.0000E+00  0.1600E+00
    -13.810  0.0000E+00  0.1600E+00
    -13.736  0.0000E+00  0.1600E+00
    -13.662  0.0000E+00  0.1600E+00
    -13.588  0.0000E+00  0.1600E+00
    -13.514  0.0000E+00  0.1600E+00
    -13.439  0.0000E+00  0.1600E+00
    -13.365  0.0000E+00  0.1600E+00
    -13.291  0.0000E+00  0.1600E+00
    -13.217  0.0000E+00  0.1600E+00
    -13.143  0.0000E+00  0.1600E+00
    -13.069  0.0000E+00  0.1600E+00
    -12.995  0.0000E+00  0.1600E+00
    -12.921  0.0000E+00  0.1600E+00
    -12.847  0.0000E+00  0.1600E+00
    -12.773  0.0000E+00  0.1600E+00
    -12.699  0.0000E+00  0.1600E+00
    -12.625  0.0000E+00  0.1600E+00
    -12.550  0.0000E+00  0.1600E+00
    -12.476  0.0000E+00  0.1600E+00
    -12.402  0.0000E+00  0.1600E+00
    -12.328  0.0000E+00  0.1600E+00
    -12.254  0.0000E+00  0.1600E+00
    -12.180  0.0000E+00  0.1600E+00
    -12.106  0.0000E+00  0.1600E+00
    -12.032  0.0000E+00  0.1600E+00
    -11.958  0.0000E+00  0.1600E+00
    -11.884  0.0000E+00  0.1600E+00
    -11.810  0.0000E+00  0.1600E+00
    -11.736  0.0000E+00  0.1600E+00
    -11.661  0.0000E+00  0.1600E+00
    -11.587  0.0000E+00  0.1600E+00
    -11.513  0.0000E+00  0.1600E+00
    -11.439  0.0000E+00  0.1600E+00
    -11.365  0.0000E+00  0.1600E+00
    -11.291  0.0000E+00  0.1600E+00
    -11.217  0.0000E+00  0.1600E+00
    -11.143  0.0000E+00  0.1600E+00
    -11.069  0.0000E+00  0.1600E+00
    -10.995  0.0000E+00  0.1600E+00
    -10.921  0.0000E+00  0.1600E+00
    -10.847  0.0000E+00  0.1600E+00
    -10.772  0.0000E+00  0.1600E+00
    -10.698  0.0000E+00  0.1600E+00
    -10.624  0.0000E+00  0.1600E+00
    -10.550  0.0000E+00  0.1600E+00
    -10.476  0.0000E+00  0.1600E+00
    -10.402  0.0000E+00  0.1600E+00
    -10.328  0.0000E+00  0.1600E+00
    -10.254  0.0000E+00  0.1600E+00
    -10.180  0.0000E+00  0.1600E+00
    -10.106  0.0000E+00  0.1600E+00
    -10.032  0.0000E+00  0.1600E+00
     -9.958  0.0000E+00  0.1600E+00
     -9.883  0.0000E+00  0.1600E+00
     -9.809  0.0000E+00  0.1600E+00
     -9.735  0.0000E+00  0.1600E+00
     -9.661  0.0000E+00  0.1600E+00
     -9.587  0.0000E+00  0.1600E+00
     -9.513  0.0000E+00  0.1600E+00
     -9.439  0.0000E+00  0.1600E+00
     -9.365  0.0000E+00  0.1600E+00
     -9.291  0.0000E+00  0.1600E+00
     -9.217  0.0000E+00  0.1600E+00
     -9.143  0.0000E+00  0.1600E+00
     -9.069  0.0000E+00  0.1600E+00
     -8.994  0.0000E+00  0.1600E+00
     -8.920  0.0000E+00  0.1600E+00
     -8.846  0.0000E+00  0.1600E+00
     -8.772  0.0000E+00  0.1600E+00
     -8.698  0.0000E+00  0.1600E+00
     -8.624  0.0000E+00  0.1600E+00
     -8.550  0.0000E+00  0.1600E+00
     -8.476  0.0000E+00  0.1600E+00
     -8.402  0.0000E+00  0.1600E+00
     -8.328  0.0000E+00  0.1600E+00
     -8.254  0.0000E+00  0.1600E+00
     -8.180  0.0000E+00  0.1600E+00
     -8.106  0.0000E+00  0.1600E+00
     -8.031  0.0000E+00  0.1600E+00
     -7.957  0.0000E+00  0.1600E+00
     -7.883  0.0000E+00  0.1600E+00
     -7.809  0.0000E+00  0.1600E+00
     -7.735  0.0000E+00  0.1600E+00
     -7.661  0.0000E+00  0.1600E+00
     -7.587  0.0000E+00  0.1600E+00
     -7.513  0.0000E+00  0.1600E+00
     -7.439  0.0000E+00  0.1600E+00
     -7.365  0.0000E+00  0.1600E+00
     -7.291  0.0000E+00  0.1600E+00
     -7.217  0.0000E+00  0.1600E+00
     -7.142  0.0000E+00  0.1600E+00
     -7.068  0.0000E+00  0.1600E+00
     -6.994  0.0000E+00  0.1600E+00
     -6.920  0.0000E+00  0.1600E+00
     -6.846  0.0000E+00  0.1600E+00
     -6.772  0.0000E+00  0.1600E+00
     -6.698  0.0000E+00  0.1600E+00
     -6.624  0.0000E+00  0.1600E+00
     -6.550  0.0000E+00  0.1600E+00
     -6.476  0.0000E+00  0.1600E+00
     -6.402  0.0000E+00  0.1600E+00
     -6.328  0.0000E+00  0.1600E+00
     -6.253  0.0000E+00  0.1600E+00
     -6.179  0.0000E+00  0.1600E+00
     -6.105  0.0000E+00  0.1600E+00
     -6.031  0.0000E+00  0.1600E+00
     -5.957  0.0000E+00  0.1600E+00
     -5.883  0.0000E+00  0.1600E+00
     -5.809  0.0000E+00  0.1600E+00
     -5.735  0.0000E+00  0.1600E+00
     -5.661  0.0000E+00  0.1600E+00
     -5.587  0.0000E+00  0.1600E+00
     -5.513  0.0000E+00  0.1600E+00
     -5.439  0.0000E+00  0.1600E+00
     -5.364  0.0000E+00  0.1600E+00
     -5.290  0.0000E+00  0.1600E+00
     -5.216  0.0000E+00  0.1600E+00
     -5.142  0.0000E+00  0.1600E+00
     -5.068  0.0000E+00  0.1600E+00
     -4.994  0.0000E+00  0.1600E+00
     -4.920  0.0000E+00  0.1600E+00
     -4.846  0.0000E+00  0.1600E+00
     -4.772  0.0000E+00  0.1600E+00
     -4.698  0.0000E+00  0.1600E+00
     -4.624  0.0000E+00  0.1600E+00
     -4.550  0.0000E+00  0.1600E+00
     -4.475  0.0000E+00  0.1600E+00
     -4.401  0.0000E+00  0.1600E+00
     -4.327  0.0000E+00  0.1600E+00
     -4.253  0.0000E+00  0.1600E+00
     -4.179  0.0000E+00  0.1600E+00
     -4.105  0.1022E-12  0.1600E+00
     -4.031  0.2137E-01  0.1616E+00
     -3.957  0.1100E+00  0.1697E+00
     -3.883  0.2147E+00  0.1857E+00
     -3.809  0.2644E+00  0.2056E+00
     -3.735  0.2546E+00  0.2248E+00
     -3.661  0.3081E+00  0.2477E+00
     -3.586  0.4171E+00  0.2789E+00
     -3.512  0.3169E+00  0.3027E+00
     -3.438  0.2626E+00  0.3224E+00
     -3.364  0.2422E+00  0.3403E+00
     -3.290  0.2620E+00  0.3599E+00
     -3.216  0.2435E+00  0.3784E+00
     -3.142  0.1211E+00  0.3875E+00
     -3.068  0.8090E-03  0.3876E+00
     -2.994  0.6752E-01  0.3926E+00
     -2.920  0.6662E-01  0.3975E+00
     -2.846  0.3370E-01  0.4000E+00
     -2.772  0.0000E+00  0.4000E+00
     -2.698  0.0000E+00  0.4000E+00
     -2.623  0.0000E+00  0.4000E+00
     -2.549  0.0000E+00  0.4000E+00
     -2.475  0.0000E+00  0.4000E+00
     -2.401  0.0000E+00  0.4000E+00
     -2.327  0.0000E+00  0.4000E+00
     -2.253  0.0000E+00  0.4000E+00
     -2.179  0.0000E+00  0.4000E+00
     -2.105  0.0000E+00  0.4000E+00
     -2.031  0.0000E+00  0.4000E+00
     -1.957  0.0000E+00  0.4000E+00
     -1.883  0.0000E+00  0.4000E+00
     -1.809  0.0000E+00  0.4000E+00
     -1.734  0.0000E+00  0.4000E+00
     -1.660  0.2175E-02  0.4002E+00
     -1.586  0.1470E-01  0.4012E+00
     -1.512  0.1125E-02  0.4013E+00
     -1.438  0.1575E-01  0.4025E+00
     -1.364  0.7617E-12  0.4025E+00
     -1.290  0.1687E-01  0.4037E+00
     -1.216  0.6557E-01  0.4086E+00
     -1.142  0.8895E-01  0.4154E+00
     -1.068  0.1561E+00  0.4269E+00
     -0.994  0.6274E-01  0.4316E+00
     -0.920  0.2147E+00  0.4475E+00
     -0.845  0.1504E+00  0.4589E+00
     -0.771  0.2015E+00  0.4739E+00
     -0.697  0.4254E+00  0.5055E+00
     -0.623  0.4974E+00  0.5425E+00
     -0.549  0.3997E+00  0.5725E+00
     -0.475  0.3996E+00  0.6022E+00
     -0.401  0.3792E+00  0.6305E+00
     -0.327  0.3398E+00  0.6563E+00
     -0.253  0.2377E+00  0.6744E+00
     -0.179  0.8893E-01  0.6812E+00
     -0.105  0.0000E+00  0.6813E+00
     -0.031  0.0000E+00  0.6813E+00
      0.044  0.0000E+00  0.6813E+00
      0.118  0.1146E-02  0.6813E+00
      0.192  0.1258E+00  0.6907E+00
      0.266  0.8378E-01  0.6969E+00
      0.340  0.5645E-02  0.6975E+00
      0.414  0.2818E-01  0.6996E+00
      0.488  0.3914E-01  0.7025E+00
      0.562  0.2024E-06  0.7025E+00
      0.636  0.6253E-01  0.7071E+00
      0.710  0.1866E+00  0.7210E+00
      0.784  0.9308E-01  0.7282E+00
      0.858  0.3326E-01  0.7306E+00
      0.933  0.1086E+00  0.7387E+00
      1.007  0.9308E-05  0.7388E+00
      1.081  0.6374E-01  0.7435E+00
      1.155  0.1378E+00  0.7540E+00
      1.229  0.6025E-01  0.7588E+00
      1.303  0.5962E-01  0.7632E+00
      1.377  0.1656E-01  0.7644E+00
      1.451  0.8229E-02  0.7650E+00
      1.525  0.1719E+00  0.7777E+00
      1.599  0.2650E-01  0.7800E+00
      1.673  0.2413E-07  0.7800E+00
      1.747  0.5738E-01  0.7843E+00
      1.822  0.1040E-01  0.7851E+00
      1.896  0.6329E-01  0.7898E+00
      1.970  0.1361E+00  0.7999E+00
      2.044  0.8337E-01  0.8062E+00
      2.118  0.6749E-01  0.8112E+00
      2.192  0.1884E-05  0.8113E+00
      2.266  0.6760E-01  0.8163E+00
      2.340  0.7044E-01  0.8215E+00
      2.414  0.1162E+00  0.8303E+00
      2.488  0.1575E+00  0.8419E+00
      2.562  0.8678E-01  0.8487E+00
      2.636  0.6524E-01  0.8536E+00
      2.711  0.1719E-01  0.8550E+00
      2.785  0.1509E+00  0.8662E+00
      2.859  0.3458E-01  0.8689E+00
      2.933  0.9512E-01  0.8760E+00
      3.007  0.1278E+00  0.8854E+00
      3.081  0.9289E-01  0.8925E+00
      3.155  0.1651E+00  0.9048E+00
      3.229  0.1753E+00  0.9178E+00
      3.303  0.1241E+00  0.9273E+00
      3.377  0.3769E-01  0.9303E+00
      3.451  0.6160E-01  0.9349E+00
      3.525  0.7387E-01  0.9405E+00
      3.599  0.1288E+00  0.9500E+00
      3.674  0.1234E+00  0.9592E+00
      3.748  0.2475E+00  0.9776E+00
      3.822  0.1260E+00  0.9870E+00
      3.896  0.5054E-01  0.9907E+00
      3.970  0.6725E-01  0.9958E+00
      4.044  0.1025E+00  0.1004E+01
      4.118  0.4998E-01  0.1008E+01
      4.192  0.1342E+00  0.1017E+01
      4.266  0.1108E+00  0.1026E+01
      4.340  0.2041E+00  0.1041E+01
      4.414  0.1758E+00  0.1054E+01
      4.488  0.1771E+00  0.1068E+01
      4.563  0.1303E+00  0.1078E+01
      4.637  0.6413E-01  0.1083E+01
      4.711  0.7663E-01  0.1088E+01
      4.785  0.8313E-01  0.1094E+01
      4.859  0.1600E+00  0.1106E+01
      4.933  0.1604E+00  0.1118E+01
      5.007  0.1687E-01  0.1120E+01
      5.081  0.0000E+00  0.1120E+01
      5.155  0.0000E+00  0.1120E+01
      5.229  0.0000E+00  0.1120E+01
      5.303  0.0000E+00  0.1120E+01
      5.377  0.0000E+00  0.1120E+01
      5.452  0.0000E+00  0.1120E+01
      5.526  0.0000E+00  0.1120E+01
      5.600  0.0000E+00  0.1120E+01
      5.674  0.0000E+00  0.1120E+01
      5.748  0.0000E+00  0.1120E+01
      5.822  0.0000E+00  0.1120E+01
      5.896  0.0000E+00  0.1120E+01
      5.970  0.0000E+00  0.1120E+01
