       N       E                     dE             d eps       ncg     rms          rms(c)
DAV:   1     0.407062736669E+04    0.40706E+04   -0.16384E+05  1840   0.819E+02
DAV:   2     0.397314882979E+03   -0.36733E+04   -0.34039E+04  2568   0.185E+02
DAV:   3    -0.836502682247E+03   -0.12338E+04   -0.12244E+04  2552   0.105E+02
DAV:   4    -0.882151542269E+03   -0.45649E+02   -0.45429E+02  2128   0.239E+01
DAV:   5    -0.883649083001E+03   -0.14975E+01   -0.14964E+01  2472   0.486E+00    0.636E+01
RMM:   6    -0.718829183143E+03    0.16482E+03   -0.62463E+02  1822   0.212E+01    0.221E+01
RMM:   7    -0.721301845697E+03   -0.24727E+01   -0.12407E+02  2045   0.685E+00    0.186E+01
RMM:   8    -0.717482681182E+03    0.38192E+01   -0.23879E+01  1875   0.452E+00    0.799E+00
RMM:   9    -0.716177419635E+03    0.13053E+01   -0.76207E+00  1833   0.361E+00    0.594E+00
RMM:  10    -0.715149962510E+03    0.10275E+01   -0.51563E+00  2034   0.156E+00    0.231E+00
RMM:  11    -0.715228755897E+03   -0.78793E-01   -0.13855E+00  1980   0.876E-01    0.247E+00
RMM:  12    -0.715077090731E+03    0.15167E+00   -0.44897E-01  1912   0.615E-01    0.752E-01
RMM:  13    -0.715050907918E+03    0.26183E-01   -0.89988E-02  1985   0.287E-01    0.544E-01
RMM:  14    -0.715045781474E+03    0.51264E-02   -0.54552E-02  1947   0.212E-01    0.108E+00
RMM:  15    -0.715023152495E+03    0.22629E-01   -0.26835E-02  2126   0.126E-01    0.118E+00
RMM:  16    -0.714987960870E+03    0.35192E-01   -0.21223E-02  2000   0.121E-01    0.850E-01
RMM:  17    -0.714951795286E+03    0.36166E-01   -0.58984E-02  2053   0.169E-01    0.359E-01
RMM:  18    -0.714930179581E+03    0.21616E-01   -0.24403E-02  2113   0.101E-01    0.361E-01
RMM:  19    -0.714921988001E+03    0.81916E-02   -0.21777E-02  2102   0.117E-01    0.940E-02
RMM:  20    -0.714920653020E+03    0.13350E-02   -0.58897E-03  2277   0.550E-02    0.611E-02
RMM:  21    -0.714920391231E+03    0.26179E-03   -0.10220E-03  2176   0.256E-02    0.450E-02
RMM:  22    -0.714920379363E+03    0.11869E-04   -0.41760E-04  2237   0.176E-02    0.337E-02
RMM:  23    -0.714920357434E+03    0.21929E-04   -0.11098E-04  1912   0.101E-02    0.190E-02
RMM:  24    -0.714920353397E+03    0.40376E-05   -0.10820E-04  1843   0.862E-03    0.742E-03
RMM:  25    -0.714920351995E+03    0.14018E-05   -0.14131E-05  1970   0.413E-03    0.373E-03
RMM:  26    -0.714920352345E+03   -0.34954E-06   -0.60541E-06  2122   0.232E-03    0.385E-03
RMM:  27    -0.714920352166E+03    0.17831E-06   -0.28444E-06  1954   0.142E-03    0.114E-03
RMM:  28    -0.714920352212E+03   -0.45537E-07   -0.47279E-07  2054   0.599E-04    0.926E-04
RMM:  29    -0.714920352125E+03    0.86518E-07   -0.96801E-08  1660   0.304E-04    0.513E-04
RMM:  30    -0.714920352018E+03    0.10744E-06   -0.64233E-08  1545   0.215E-04    0.334E-04
RMM:  31    -0.714920351987E+03    0.30319E-07   -0.22308E-08  1271   0.137E-04    0.263E-04
RMM:  32    -0.714920351969E+03    0.18299E-07   -0.89512E-09  1170   0.970E-05    0.258E-04
RMM:  33    -0.714920351959E+03    0.10299E-07   -0.48279E-09  1154   0.780E-05    0.167E-04
RMM:  34    -0.714920351966E+03   -0.76216E-08   -0.22056E-09  1059   0.543E-05
   1 F= -.71492035E+03 E0= -.71490562E+03  d E =-.714920E+03
       N       E                     dE             d eps       ncg     rms          rms(c)
DAV:   1    -0.715004852647E+03   -0.84501E-01   -0.65268E+00  1984   0.310E+00    0.558E-01
RMM:   2    -0.715021843202E+03   -0.16991E-01   -0.20547E-01  1961   0.536E-01    0.184E-01
RMM:   3    -0.715023649565E+03   -0.18064E-02   -0.32409E-02  2225   0.222E-01    0.171E-01
RMM:   4    -0.715023719696E+03   -0.70131E-04   -0.65067E-03  2188   0.823E-02    0.129E-01
RMM:   5    -0.715023206947E+03    0.51275E-03   -0.19093E-03  1936   0.482E-02    0.445E-02
RMM:   6    -0.715023094502E+03    0.11244E-03   -0.61697E-04  2132   0.285E-02    0.367E-02
RMM:   7    -0.715023012882E+03    0.81620E-04   -0.15942E-04  2181   0.124E-02    0.208E-02
RMM:   8    -0.715022936200E+03    0.76681E-04   -0.18637E-04  2049   0.116E-02    0.205E-02
RMM:   9    -0.715022873777E+03    0.62424E-04   -0.47718E-05  1929   0.763E-03    0.106E-02
RMM:  10    -0.715022798353E+03    0.75424E-04   -0.77640E-05  1920   0.654E-03    0.885E-03
RMM:  11    -0.715022741768E+03    0.56585E-04   -0.73569E-05  2125   0.538E-03    0.991E-03
RMM:  12    -0.715022726001E+03    0.15767E-04   -0.21984E-05  2230   0.324E-03    0.755E-03
RMM:  13    -0.715022706638E+03    0.19363E-04   -0.20398E-05  2037   0.324E-03    0.577E-03
RMM:  14    -0.715022698289E+03    0.83490E-05   -0.18578E-05  2123   0.295E-03    0.419E-03
RMM:  15    -0.715022695678E+03    0.26105E-05   -0.52604E-06  2279   0.164E-03    0.290E-03
RMM:  16    -0.715022692412E+03    0.32660E-05   -0.70923E-06  2077   0.187E-03    0.344E-03
RMM:  17    -0.715022691804E+03    0.60858E-06   -0.18242E-06  2200   0.105E-03    0.165E-03
RMM:  18    -0.715022691333E+03    0.47103E-06   -0.10359E-06  2009   0.745E-04    0.167E-03
RMM:  19    -0.715022691164E+03    0.16864E-06   -0.99764E-07  2045   0.751E-04    0.805E-04
RMM:  20    -0.715022691065E+03    0.99546E-07   -0.21657E-07  2011   0.389E-04    0.465E-04
RMM:  21    -0.715022691003E+03    0.61795E-07   -0.16902E-07  1857   0.295E-04    0.282E-04
RMM:  22    -0.715022691007E+03   -0.45438E-08   -0.43171E-08  1443   0.163E-04
   2 F= -.71502269E+03 E0= -.71500789E+03  d E =-.102339E+00
       N       E                     dE             d eps       ncg     rms          rms(c)
DAV:   1    -0.715097757921E+03   -0.75067E-01   -0.58648E+01  2008   0.938E+00    0.170E+00
RMM:   2    -0.715251198124E+03   -0.15344E+00   -0.18841E+00  1965   0.160E+00    0.572E-01
RMM:   3    -0.715267990177E+03   -0.16792E-01   -0.30817E-01  2226   0.664E-01    0.558E-01
RMM:   4    -0.715266744092E+03    0.12461E-02   -0.47813E-02  2173   0.237E-01    0.387E-01
RMM:   5    -0.715262179413E+03    0.45647E-02   -0.12559E-02  1960   0.127E-01    0.150E-01
RMM:   6    -0.715260798242E+03    0.13812E-02   -0.54884E-03  2097   0.821E-02    0.100E-01
RMM:   7    -0.715259959652E+03    0.83859E-03   -0.14395E-03  2200   0.364E-02    0.590E-02
RMM:   8    -0.715259266717E+03    0.69293E-03   -0.11949E-03  2013   0.315E-02    0.546E-02
RMM:   9    -0.715258688715E+03    0.57800E-03   -0.48721E-04  1960   0.217E-02    0.280E-02
RMM:  10    -0.715258047938E+03    0.64078E-03   -0.57880E-04  2067   0.159E-02    0.242E-02
RMM:  11    -0.715257598642E+03    0.44930E-03   -0.45935E-04  2168   0.135E-02    0.323E-02
RMM:  12    -0.715257372107E+03    0.22654E-03   -0.32434E-04  2150   0.132E-02    0.195E-02
RMM:  13    -0.715257208999E+03    0.16311E-03   -0.24439E-04  2096   0.108E-02    0.146E-02
RMM:  14    -0.715257150225E+03    0.58775E-04   -0.11311E-04  2164   0.703E-03    0.104E-02
RMM:  15    -0.715257122098E+03    0.28127E-04   -0.57480E-05  2289   0.492E-03    0.930E-03
RMM:  16    -0.715257092503E+03    0.29595E-04   -0.65454E-05  2050   0.574E-03    0.993E-03
RMM:  17    -0.715257085602E+03    0.69012E-05   -0.24232E-05  2103   0.386E-03    0.334E-03
RMM:  18    -0.715257082626E+03    0.29759E-05   -0.99539E-06  2173   0.224E-03    0.308E-03
RMM:  19    -0.715257081348E+03    0.12786E-05   -0.56955E-06  2082   0.180E-03    0.290E-03
RMM:  20    -0.715257080343E+03    0.10051E-05   -0.29584E-06  2038   0.127E-03    0.191E-03
RMM:  21    -0.715257080096E+03    0.24653E-06   -0.12672E-06  2147   0.902E-04    0.123E-03
RMM:  22    -0.715257080036E+03    0.60161E-07   -0.28574E-07  2011   0.473E-04    0.881E-04
RMM:  23    -0.715257080027E+03    0.86147E-08   -0.11761E-07  1831   0.285E-04    0.538E-04
RMM:  24    -0.715257080038E+03   -0.10783E-07   -0.42092E-08  1374   0.173E-04    0.329E-04
RMM:  25    -0.715257080050E+03   -0.12064E-07   -0.22627E-08  1246   0.145E-04    0.149E-04
RMM:  26    -0.715257080051E+03   -0.10550E-08   -0.52971E-09  1154   0.914E-05
   3 F= -.71525708E+03 E0= -.71524222E+03  d E =-.336728E+00
       N       E                     dE             d eps       ncg     rms          rms(c)
DAV:   1    -0.714738498136E+03    0.51858E+00   -0.23340E+02  1944   0.186E+01    0.359E+00
RMM:   2    -0.715362908348E+03   -0.62441E+00   -0.79431E+00  1918   0.342E+00    0.125E+00
RMM:   3    -0.715463393304E+03   -0.10048E+00   -0.16029E+00  2223   0.144E+00    0.128E+00
RMM:   4    -0.715448282897E+03    0.15110E-01   -0.18542E-01  2128   0.492E-01    0.816E-01
RMM:   5    -0.715427947752E+03    0.20335E-01   -0.65692E-02  1983   0.278E-01    0.294E-01
RMM:   6    -0.715421806773E+03    0.61410E-02   -0.23158E-02  2135   0.164E-01    0.152E-01
RMM:   7    -0.715419865125E+03    0.19416E-02   -0.67869E-03  2287   0.731E-02    0.112E-01
RMM:   8    -0.715417455801E+03    0.24093E-02   -0.22460E-03  2025   0.458E-02    0.809E-02
RMM:   9    -0.715414819760E+03    0.26360E-02   -0.16808E-03  2187   0.324E-02    0.634E-02
RMM:  10    -0.715412682619E+03    0.21371E-02   -0.14482E-03  2142   0.251E-02    0.457E-02
RMM:  11    -0.715410945816E+03    0.17368E-02   -0.14776E-03  2136   0.237E-02    0.391E-02
RMM:  12    -0.715410057687E+03    0.88813E-03   -0.12895E-03  2201   0.233E-02    0.405E-02
RMM:  13    -0.715409633226E+03    0.42446E-03   -0.76769E-04  2148   0.201E-02    0.251E-02
RMM:  14    -0.715409462637E+03    0.17059E-03   -0.28338E-04  2221   0.114E-02    0.179E-02
RMM:  15    -0.715409354320E+03    0.10832E-03   -0.25713E-04  2134   0.109E-02    0.218E-02
RMM:  16    -0.715409286020E+03    0.68300E-04   -0.20089E-04  2079   0.104E-02    0.110E-02
RMM:  17    -0.715409271442E+03    0.14578E-04   -0.69517E-05  2196   0.618E-03    0.633E-03
RMM:  18    -0.715409263727E+03    0.77146E-05   -0.18288E-05  2145   0.319E-03    0.416E-03
RMM:  19    -0.715409259947E+03    0.37797E-05   -0.11219E-05  2093   0.246E-03    0.358E-03
RMM:  20    -0.715409258894E+03    0.10532E-05   -0.52044E-06  2225   0.164E-03    0.314E-03
RMM:  21    -0.715409257970E+03    0.92456E-06   -0.24506E-06  2041   0.128E-03    0.148E-03
RMM:  22    -0.715409257915E+03    0.54944E-07   -0.75577E-07  2233   0.669E-04    0.155E-03
RMM:  23    -0.715409257967E+03   -0.52569E-07   -0.40836E-07  1887   0.578E-04    0.579E-04
RMM:  24    -0.715409257949E+03    0.18597E-07   -0.61604E-08  1638   0.260E-04    0.189E-04
RMM:  25    -0.715409257936E+03    0.12267E-07   -0.90780E-09  1246   0.136E-04    0.115E-04
RMM:  26    -0.715409257938E+03   -0.13752E-08   -0.27175E-08  1158   0.861E-05
   4 F= -.71540926E+03 E0= -.71539504E+03  d E =-.488906E+00
       N       E                     dE             d eps       ncg     rms          rms(c)
DAV:   1    -0.715484578488E+03   -0.75321E-01   -0.64375E+00  2064   0.317E+00    0.551E-01
RMM:   2    -0.715500264445E+03   -0.15686E-01   -0.18500E-01  1972   0.570E-01    0.151E-01
RMM:   3    -0.715502309353E+03   -0.20449E-02   -0.31100E-02  2166   0.233E-01    0.186E-01
RMM:   4    -0.715502526861E+03   -0.21751E-03   -0.60889E-03  2202   0.854E-02    0.153E-01
RMM:   5    -0.715501942745E+03    0.58412E-03   -0.19231E-03  1964   0.476E-02    0.455E-02
RMM:   6    -0.715501897258E+03    0.45487E-04   -0.94973E-04  2059   0.328E-02    0.446E-02
RMM:   7    -0.715501854389E+03    0.42869E-04   -0.14088E-04  2155   0.125E-02    0.257E-02
RMM:   8    -0.715501834219E+03    0.20170E-04   -0.14350E-04  2023   0.106E-02    0.103E-02
RMM:   9    -0.715501828992E+03    0.52265E-05   -0.34957E-05  2382   0.606E-03    0.115E-02
RMM:  10    -0.715501821812E+03    0.71797E-05   -0.13652E-05  1982   0.333E-03    0.462E-03
RMM:  11    -0.715501812297E+03    0.95152E-05   -0.11425E-05  2092   0.272E-03    0.388E-03
RMM:  12    -0.715501810887E+03    0.14107E-05   -0.28207E-06  2353   0.139E-03    0.278E-03
RMM:  13    -0.715501804845E+03    0.60413E-05   -0.49083E-06  2000   0.162E-03    0.286E-03
RMM:  14    -0.715501799285E+03    0.55599E-05   -0.82781E-06  2122   0.169E-03    0.428E-03
RMM:  15    -0.715501798016E+03    0.12691E-05   -0.32993E-06  2164   0.126E-03    0.380E-03
RMM:  16    -0.715501796179E+03    0.18375E-05   -0.30936E-06  2113   0.141E-03    0.202E-03
RMM:  17    -0.715501795824E+03    0.35452E-06   -0.10856E-06  2163   0.702E-04    0.190E-03
RMM:  18    -0.715501795729E+03    0.94762E-07   -0.32575E-07  2006   0.482E-04    0.511E-04
RMM:  19    -0.715501795693E+03    0.36878E-07   -0.95168E-08  1810   0.254E-04    0.257E-04
RMM:  20    -0.715501795690E+03    0.21137E-08   -0.19853E-08  1229   0.133E-04
   5 F= -.71550180E+03 E0= -.71548780E+03  d E =-.925378E-01
       N       E                     dE             d eps       ncg     rms          rms(c)
DAV:   1    -0.715546660842E+03   -0.44865E-01   -0.57776E+01  1880   0.953E+00    0.172E+00
RMM:   2    -0.715698389545E+03   -0.15173E+00   -0.17942E+00  1957   0.178E+00    0.474E-01
RMM:   3    -0.715721031573E+03   -0.22642E-01   -0.33159E-01  2187   0.748E-01    0.595E-01
RMM:   4    -0.715722122540E+03   -0.10910E-02   -0.53068E-02  2200   0.257E-01    0.475E-01
RMM:   5    -0.715716567712E+03    0.55548E-02   -0.21667E-02  1959   0.161E-01    0.144E-01
RMM:   6    -0.715715939919E+03    0.62779E-03   -0.58365E-03  2154   0.884E-02    0.103E-01
RMM:   7    -0.715715647434E+03    0.29248E-03   -0.14421E-03  2133   0.385E-02    0.704E-02
RMM:   8    -0.715715502005E+03    0.14543E-03   -0.10199E-03  2042   0.301E-02    0.264E-02
RMM:   9    -0.715715460169E+03    0.41836E-04   -0.28221E-04  2388   0.168E-02    0.282E-02
RMM:  10    -0.715715404864E+03    0.55305E-04   -0.78308E-05  2079   0.835E-03    0.127E-02
RMM:  11    -0.715715328931E+03    0.75933E-04   -0.79936E-05  2075   0.698E-03    0.962E-03
RMM:  12    -0.715715312467E+03    0.16464E-04   -0.26832E-05  2310   0.422E-03    0.779E-03
RMM:  13    -0.715715253614E+03    0.58853E-04   -0.81006E-05  2132   0.622E-03    0.114E-02
RMM:  14    -0.715715212395E+03    0.41219E-04   -0.59884E-05  2167   0.493E-03    0.997E-03
RMM:  15    -0.715715202276E+03    0.10119E-04   -0.44166E-05  2243   0.462E-03    0.112E-02
RMM:  16    -0.715715189183E+03    0.13093E-04   -0.28473E-05  2071   0.423E-03    0.564E-03
RMM:  17    -0.715715188149E+03    0.10341E-05   -0.94262E-06  2223   0.241E-03    0.552E-03
RMM:  18    -0.715715187632E+03    0.51679E-06   -0.56024E-06  1982   0.205E-03    0.202E-03
RMM:  19    -0.715715187361E+03    0.27091E-06   -0.83885E-07  2070   0.885E-04    0.899E-04
RMM:  20    -0.715715187319E+03    0.42903E-07   -0.41088E-07  2126   0.515E-04    0.588E-04
RMM:  21    -0.715715187351E+03   -0.32196E-07   -0.21521E-07  1833   0.400E-04    0.902E-04
RMM:  22    -0.715715187305E+03    0.45886E-07   -0.66722E-08  1645   0.250E-04    0.229E-04
RMM:  23    -0.715715187302E+03    0.24702E-08   -0.37502E-08  1490   0.187E-04
   6 F= -.71571519E+03 E0= -.71570200E+03  d E =-.305929E+00
       N       E                     dE             d eps       ncg     rms          rms(c)
DAV:   1    -0.715114597960E+03    0.60059E+00   -0.23050E+02  1856   0.189E+01    0.359E+00
RMM:   2    -0.715768733810E+03   -0.65414E+00   -0.78235E+00  1949   0.364E+00    0.108E+00
RMM:   3    -0.715857894402E+03   -0.89161E-01   -0.13839E+00  2184   0.154E+00    0.127E+00
RMM:   4    -0.715857435706E+03    0.45870E-03   -0.20893E-01  2170   0.537E-01    0.977E-01
RMM:   5    -0.715835222169E+03    0.22214E-01   -0.86792E-02  1963   0.332E-01    0.320E-01
RMM:   6    -0.715831762714E+03    0.34595E-02   -0.20855E-02  2195   0.172E-01    0.165E-01
RMM:   7    -0.715830767551E+03    0.99516E-03   -0.66916E-03  1990   0.848E-02    0.111E-01
RMM:   8    -0.715830380091E+03    0.38746E-03   -0.29729E-03  2154   0.499E-02    0.597E-02
RMM:   9    -0.715830160290E+03    0.21980E-03   -0.98244E-04  2201   0.321E-02    0.518E-02
RMM:  10    -0.715829949692E+03    0.21060E-03   -0.27899E-04  2140   0.156E-02    0.268E-02
RMM:  11    -0.715829685279E+03    0.26441E-03   -0.35527E-04  2071   0.143E-02    0.178E-02
RMM:  12    -0.715829609223E+03    0.76056E-04   -0.78628E-05  2217   0.756E-03    0.132E-02
RMM:  13    -0.715829356818E+03    0.25240E-03   -0.24964E-04  2119   0.106E-02    0.222E-02
RMM:  14    -0.715829235545E+03    0.12127E-03   -0.18015E-04  2111   0.907E-03    0.146E-02
RMM:  15    -0.715829162366E+03    0.73179E-04   -0.13528E-04  2225   0.759E-03    0.118E-02
RMM:  16    -0.715829130756E+03    0.31609E-04   -0.86895E-05  2088   0.627E-03    0.108E-02
RMM:  17    -0.715829123885E+03    0.68711E-05   -0.51407E-05  2063   0.597E-03    0.106E-02
RMM:  18    -0.715829122565E+03    0.13199E-05   -0.12668E-05  2250   0.328E-03    0.682E-03
RMM:  19    -0.715829121827E+03    0.73881E-06   -0.88675E-06  1964   0.257E-03    0.369E-03
RMM:  20    -0.715829121501E+03    0.32604E-06   -0.20005E-06  2170   0.132E-03    0.130E-03
RMM:  21    -0.715829121479E+03    0.21304E-07   -0.55061E-07  2160   0.607E-04    0.810E-04
RMM:  22    -0.715829121495E+03   -0.15807E-07   -0.10767E-07  1783   0.297E-04    0.831E-04
RMM:  23    -0.715829121428E+03    0.67463E-07   -0.89311E-08  1660   0.266E-04    0.282E-04
RMM:  24    -0.715829121402E+03    0.25833E-07   -0.92619E-08  1617   0.254E-04    0.416E-04
RMM:  25    -0.715829121408E+03   -0.62173E-08   -0.16264E-08  1212   0.132E-04
   7 F= -.71582912E+03 E0= -.71581791E+03  d E =-.419863E+00
       N       E                     dE             d eps       ncg     rms          rms(c)
DAV:   1    -0.715933362538E+03   -0.10424E+00   -0.17540E+01  1968   0.540E+00    0.958E-01
RMM:   2    -0.715984105047E+03   -0.50743E-01   -0.57884E-01  1980   0.105E+00    0.240E-01
RMM:   3    -0.715990619906E+03   -0.65149E-02   -0.93704E-02  2178   0.421E-01    0.348E-01
RMM:   4    -0.715991159856E+03   -0.53995E-03   -0.16656E-02  2203   0.153E-01    0.280E-01
RMM:   5    -0.715989629306E+03    0.15305E-02   -0.32607E-03  1969   0.697E-02    0.136E-01
RMM:   6    -0.715989224833E+03    0.40447E-03   -0.56014E-03  1932   0.753E-02    0.824E-02
RMM:   7    -0.715989066546E+03    0.15829E-03   -0.53854E-04  2049   0.302E-02    0.532E-02
RMM:   8    -0.715988957087E+03    0.10946E-03   -0.85625E-04  2151   0.243E-02    0.258E-02
RMM:   9    -0.715988924293E+03    0.32794E-04   -0.13004E-04  2206   0.121E-02    0.188E-02
RMM:  10    -0.715988901829E+03    0.22464E-04   -0.49820E-05  2172   0.589E-03    0.958E-03
RMM:  11    -0.715988874729E+03    0.27100E-04   -0.32684E-05  1999   0.486E-03    0.114E-02
RMM:  12    -0.715988867574E+03    0.71549E-05   -0.19162E-05  2194   0.338E-03    0.615E-03
RMM:  13    -0.715988859250E+03    0.83237E-05   -0.10183E-05  2039   0.256E-03    0.414E-03
RMM:  14    -0.715988853419E+03    0.58312E-05   -0.16594E-05  2093   0.271E-03    0.561E-03
RMM:  15    -0.715988850026E+03    0.33932E-05   -0.95667E-06  2168   0.223E-03    0.383E-03
RMM:  16    -0.715988848135E+03    0.18911E-05   -0.54176E-06  2107   0.185E-03    0.375E-03
RMM:  17    -0.715988846364E+03    0.17714E-05   -0.43040E-06  2109   0.154E-03    0.276E-03
RMM:  18    -0.715988845747E+03    0.61657E-06   -0.10096E-06  2152   0.897E-04    0.139E-03
RMM:  19    -0.715988845223E+03    0.52359E-06   -0.91754E-07  2044   0.629E-04    0.102E-03
RMM:  20    -0.715988845064E+03    0.15933E-06   -0.40092E-07  2125   0.410E-04    0.642E-04
RMM:  21    -0.715988844956E+03    0.10790E-06   -0.17477E-07  1977   0.307E-04    0.613E-04
RMM:  22    -0.715988844880E+03    0.76609E-07   -0.15781E-07  1856   0.269E-04    0.771E-04
RMM:  23    -0.715988844847E+03    0.32931E-07   -0.10168E-07  1666   0.237E-04    0.242E-04
RMM:  24    -0.715988844840E+03    0.65120E-08   -0.38562E-08  1444   0.165E-04
   8 F= -.71598884E+03 E0= -.71597824E+03  d E =-.159723E+00
       N       E                     dE             d eps       ncg     rms          rms(c)
DAV:   1    -0.715946933598E+03    0.41911E-01   -0.51763E+01  1904   0.930E+00    0.166E+00
RMM:   2    -0.716102671784E+03   -0.15574E+00   -0.17710E+00  1984   0.184E+00    0.430E-01
RMM:   3    -0.716121474730E+03   -0.18803E-01   -0.27849E-01  2171   0.736E-01    0.608E-01
RMM:   4    -0.716122984329E+03   -0.15096E-02   -0.50062E-02  2203   0.269E-01    0.485E-01
RMM:   5    -0.716118028741E+03    0.49556E-02   -0.11855E-02  1969   0.133E-01    0.203E-01
RMM:   6    -0.716117103780E+03    0.92496E-03   -0.12846E-02  1942   0.120E-01    0.128E-01
RMM:   7    -0.716116661700E+03    0.44208E-03   -0.14225E-03  2122   0.478E-02    0.823E-02
RMM:   8    -0.716116352532E+03    0.30917E-03   -0.16659E-03  2106   0.357E-02    0.347E-02
RMM:   9    -0.716116260324E+03    0.92208E-04   -0.32625E-04  2283   0.182E-02    0.244E-02
RMM:  10    -0.716116201971E+03    0.58353E-04   -0.74943E-05  2178   0.762E-03    0.158E-02
RMM:  11    -0.716116119317E+03    0.82654E-04   -0.94887E-05  2037   0.731E-03    0.163E-02
RMM:  12    -0.716116103042E+03    0.16275E-04   -0.43951E-05  2242   0.518E-03    0.901E-03
RMM:  13    -0.716116077292E+03    0.25750E-04   -0.24620E-05  2039   0.377E-03    0.557E-03
RMM:  14    -0.716116059941E+03    0.17351E-04   -0.38848E-05  2076   0.402E-03    0.764E-03
RMM:  15    -0.716116054393E+03    0.55487E-05   -0.30507E-05  2171   0.408E-03    0.784E-03
RMM:  16    -0.716116047561E+03    0.68315E-05   -0.96437E-06  2021   0.269E-03    0.575E-03
RMM:  17    -0.716116044614E+03    0.29470E-05   -0.14237E-05  2144   0.283E-03    0.545E-03
RMM:  18    -0.716116042875E+03    0.17392E-05   -0.25609E-06  2009   0.163E-03    0.208E-03
RMM:  19    -0.716116041225E+03    0.16503E-05   -0.36168E-06  2004   0.133E-03    0.185E-03
RMM:  20    -0.716116040971E+03    0.25385E-06   -0.94895E-07  2247   0.725E-04    0.122E-03
RMM:  21    -0.716116040542E+03    0.42855E-06   -0.65729E-07  2031   0.618E-04    0.103E-03
RMM:  22    -0.716116040403E+03    0.13917E-06   -0.64051E-07  2055   0.563E-04    0.172E-03
RMM:  23    -0.716116040321E+03    0.81811E-07   -0.19442E-07  1920   0.342E-04    0.926E-04
RMM:  24    -0.716116040275E+03    0.46566E-07   -0.15424E-07  1783   0.292E-04    0.280E-04
RMM:  25    -0.716116040263E+03    0.11376E-07   -0.44411E-08  1423   0.193E-04    0.185E-04
RMM:  26    -0.716116040268E+03   -0.42273E-08   -0.11268E-08  1141   0.114E-04
   9 F= -.71611604E+03 E0= -.71610642E+03  d E =-.286919E+00
       N       E                     dE             d eps       ncg     rms          rms(c)
DAV:   1    -0.716235298755E+03   -0.11926E+00   -0.25155E+01  1912   0.619E+00    0.106E+00
RMM:   2    -0.716298818807E+03   -0.63520E-01   -0.74856E-01  1943   0.109E+00    0.319E-01
RMM:   3    -0.716307014669E+03   -0.81959E-02   -0.13277E-01  2195   0.477E-01    0.360E-01
RMM:   4    -0.716306956000E+03    0.58669E-04   -0.17498E-02  2185   0.162E-01    0.281E-01
RMM:   5    -0.716304839806E+03    0.21162E-02   -0.10299E-02  1948   0.112E-01    0.937E-02
RMM:   6    -0.716304757342E+03    0.82465E-04   -0.21434E-03  2112   0.585E-02    0.960E-02
RMM:   7    -0.716304569479E+03    0.18786E-03   -0.51850E-04  2182   0.242E-02    0.507E-02
RMM:   8    -0.716304504087E+03    0.65391E-04   -0.55471E-04  2036   0.216E-02    0.231E-02
RMM:   9    -0.716304490252E+03    0.13835E-04   -0.15789E-04  2325   0.133E-02    0.209E-02
RMM:  10    -0.716304471996E+03    0.18256E-04   -0.44593E-05  2120   0.618E-03    0.904E-03
RMM:  11    -0.716304463106E+03    0.88898E-05   -0.26554E-05  2134   0.450E-03    0.573E-03
RMM:  12    -0.716304461029E+03    0.20768E-05   -0.52514E-06  2238   0.188E-03    0.424E-03
RMM:  13    -0.716304459304E+03    0.17251E-05   -0.26418E-06  2115   0.136E-03    0.286E-03
RMM:  14    -0.716304458053E+03    0.12509E-05   -0.47225E-06  2122   0.158E-03    0.329E-03
RMM:  15    -0.716304457641E+03    0.41227E-06   -0.15756E-06  2107   0.995E-04    0.201E-03
RMM:  16    -0.716304457364E+03    0.27720E-06   -0.91001E-07  2057   0.821E-04    0.136E-03
RMM:  17    -0.716304457139E+03    0.22418E-06   -0.56570E-07  2059   0.579E-04    0.108E-03
RMM:  18    -0.716304457092E+03    0.47090E-07   -0.29793E-07  1932   0.434E-04    0.485E-04
RMM:  19    -0.716304457085E+03    0.72359E-08   -0.78596E-08  1660   0.219E-04
  10 F= -.71630446E+03 E0= -.71629486E+03  d E =-.188417E+00
       N       E                     dE             d eps       ncg     rms          rms(c)
DAV:   1    -0.715841989548E+03    0.46247E+00   -0.21937E+02  1832   0.185E+01    0.327E+00
RMM:   2    -0.716460882934E+03   -0.61889E+00   -0.73525E+00  1934   0.343E+00    0.102E+00
RMM:   3    -0.716554706010E+03   -0.93823E-01   -0.13697E+00  2192   0.152E+00    0.116E+00
RMM:   4    -0.716549570821E+03    0.51352E-02   -0.17702E-01  2147   0.519E-01    0.825E-01
RMM:   5    -0.716532293551E+03    0.17277E-01   -0.74580E-02  1950   0.317E-01    0.269E-01
RMM:   6    -0.716529690745E+03    0.26028E-02   -0.17331E-02  2203   0.162E-01    0.170E-01
RMM:   7    -0.716528716054E+03    0.97469E-03   -0.56731E-03  2057   0.778E-02    0.959E-02
RMM:   8    -0.716528398157E+03    0.31790E-03   -0.21536E-03  2197   0.423E-02    0.598E-02
RMM:   9    -0.716528204941E+03    0.19322E-03   -0.67564E-04  2260   0.258E-02    0.366E-02
RMM:  10    -0.716528110882E+03    0.94059E-04   -0.16796E-04  2215   0.115E-02    0.258E-02
RMM:  11    -0.716528027149E+03    0.83733E-04   -0.14952E-04  1999   0.994E-03    0.127E-02
RMM:  12    -0.716528012468E+03    0.14681E-04   -0.62013E-05  2332   0.622E-03    0.107E-02
RMM:  13    -0.716527992620E+03    0.19847E-04   -0.26155E-05  2096   0.414E-03    0.872E-03
RMM:  14    -0.716527982694E+03    0.99267E-05   -0.27718E-05  2018   0.427E-03    0.480E-03
RMM:  15    -0.716527979188E+03    0.35057E-05   -0.11153E-05  2198   0.254E-03    0.401E-03
RMM:  16    -0.716527977399E+03    0.17890E-05   -0.56167E-06  1974   0.207E-03    0.330E-03
RMM:  17    -0.716527975703E+03    0.16964E-05   -0.39446E-06  2176   0.141E-03    0.245E-03
RMM:  18    -0.716527975112E+03    0.59091E-06   -0.19676E-06  2168   0.107E-03    0.160E-03
RMM:  19    -0.716527974766E+03    0.34519E-06   -0.69649E-07  2051   0.689E-04    0.803E-04
RMM:  20    -0.716527974718E+03    0.48625E-07   -0.27729E-07  1984   0.379E-04    0.576E-04
RMM:  21    -0.716527974687E+03    0.30435E-07   -0.23019E-07  1816   0.366E-04    0.759E-04
RMM:  22    -0.716527974557E+03    0.13079E-06   -0.12241E-07  1694   0.278E-04    0.426E-04
RMM:  23    -0.716527974454E+03    0.10247E-06   -0.88474E-08  1667   0.199E-04    0.255E-04
RMM:  24    -0.716527974322E+03    0.13248E-06   -0.16051E-07  1932   0.247E-04    0.351E-04
RMM:  25    -0.716527974314E+03    0.77962E-08   -0.42891E-08  1477   0.174E-04
  11 F= -.71652797E+03 E0= -.71651874E+03  d E =-.411934E+00
       N       E                     dE             d eps       ncg     rms          rms(c)
DAV:   1    -0.716623200104E+03   -0.95226E-01   -0.18721E+01  1896   0.571E+00    0.109E+00
RMM:   2    -0.716673634787E+03   -0.50435E-01   -0.60700E-01  1948   0.115E+00    0.261E-01
RMM:   3    -0.716683052481E+03   -0.94177E-02   -0.12726E-01  2217   0.490E-01    0.434E-01
RMM:   4    -0.716683772456E+03   -0.71998E-03   -0.19805E-02  2188   0.168E-01    0.357E-01
RMM:   5    -0.716681470101E+03    0.23024E-02   -0.42533E-03  1970   0.779E-02    0.182E-01
RMM:   6    -0.716681061854E+03    0.40825E-03   -0.13826E-02  1986   0.107E-01    0.169E-01
RMM:   7    -0.716680439193E+03    0.62266E-03   -0.10899E-03  2004   0.402E-02    0.117E-01
RMM:   8    -0.716679882657E+03    0.55654E-03   -0.46129E-03  2151   0.491E-02    0.467E-02
RMM:   9    -0.716679742909E+03    0.13975E-03   -0.32765E-04  2058   0.200E-02    0.271E-02
RMM:  10    -0.716679535589E+03    0.20732E-03   -0.36742E-04  2058   0.147E-02    0.208E-02
RMM:  11    -0.716679217480E+03    0.31811E-03   -0.27046E-04  2095   0.118E-02    0.325E-02
RMM:  12    -0.716679080582E+03    0.13690E-03   -0.15021E-04  2166   0.821E-03    0.201E-02
RMM:  13    -0.716678878288E+03    0.20229E-03   -0.38609E-04  2286   0.128E-02    0.320E-02
RMM:  14    -0.716678809878E+03    0.68410E-04   -0.12933E-04  2138   0.752E-03    0.268E-02
RMM:  15    -0.716678787201E+03    0.22678E-04   -0.60696E-05  2255   0.541E-03    0.137E-02
RMM:  16    -0.716678779654E+03    0.75462E-05   -0.47128E-05  2066   0.562E-03    0.606E-03
RMM:  17    -0.716678779631E+03    0.23603E-07   -0.10942E-05  2242   0.314E-03    0.809E-03
RMM:  18    -0.716678777986E+03    0.16444E-05   -0.43003E-06  1953   0.199E-03    0.203E-03
RMM:  19    -0.716678778009E+03   -0.23130E-07   -0.18328E-06  2331   0.116E-03    0.117E-03
RMM:  20    -0.716678777991E+03    0.18346E-07   -0.13132E-07  1883   0.398E-04    0.577E-04
RMM:  21    -0.716678778005E+03   -0.13999E-07   -0.11457E-07  1728   0.330E-04    0.622E-04
RMM:  22    -0.716678777998E+03    0.73778E-08   -0.21447E-08  1242   0.159E-04
  12 F= -.71667878E+03 E0= -.71666992E+03  d E =-.150804E+00
       N       E                     dE             d eps       ncg     rms          rms(c)
DAV:   1    -0.716622450359E+03    0.56328E-01   -0.46395E+01  1816   0.905E+00    0.176E+00
RMM:   2    -0.716757028332E+03   -0.13458E+00   -0.16053E+00  1961   0.185E+00    0.411E-01
RMM:   3    -0.716780600190E+03   -0.23572E-01   -0.31781E-01  2211   0.780E-01    0.684E-01
RMM:   4    -0.716782101229E+03   -0.15010E-02   -0.48612E-02  2189   0.267E-01    0.562E-01
RMM:   5    -0.716775794274E+03    0.63070E-02   -0.13650E-02  1962   0.136E-01    0.242E-01
RMM:   6    -0.716774895609E+03    0.89866E-03   -0.24838E-02  1943   0.151E-01    0.231E-01
RMM:   7    -0.716773280064E+03    0.16155E-02   -0.27357E-03  2053   0.600E-02    0.133E-01
RMM:   8    -0.716772248835E+03    0.10312E-02   -0.73135E-03  2129   0.655E-02    0.671E-02
RMM:   9    -0.716771955593E+03    0.29324E-03   -0.77773E-04  1992   0.299E-02    0.362E-02
RMM:  10    -0.716771151029E+03    0.80456E-03   -0.88099E-04  2020   0.226E-02    0.393E-02
RMM:  11    -0.716770496681E+03    0.65435E-03   -0.77799E-04  2117   0.182E-02    0.486E-02
RMM:  12    -0.716770217393E+03    0.27929E-03   -0.34184E-04  2169   0.130E-02    0.277E-02
RMM:  13    -0.716769741348E+03    0.47604E-03   -0.10246E-03  2310   0.203E-02    0.500E-02
RMM:  14    -0.716769681449E+03    0.59900E-04   -0.14279E-04  2292   0.865E-03    0.378E-02
RMM:  15    -0.716769630980E+03    0.50469E-04   -0.75029E-05  2106   0.663E-03    0.188E-02
RMM:  16    -0.716769616361E+03    0.14619E-04   -0.58353E-05  2080   0.625E-03    0.680E-03
RMM:  17    -0.716769617959E+03   -0.15984E-05   -0.66629E-05  2259   0.626E-03    0.114E-02
RMM:  18    -0.716769612728E+03    0.52314E-05   -0.17134E-05  2014   0.344E-03    0.333E-03
RMM:  19    -0.716769612879E+03   -0.15116E-06   -0.62210E-06  2195   0.215E-03    0.225E-03
RMM:  20    -0.716769612897E+03   -0.17571E-07   -0.10199E-06  2119   0.932E-04    0.134E-03
RMM:  21    -0.716769612839E+03    0.58208E-07   -0.15613E-07  1874   0.364E-04    0.556E-04
RMM:  22    -0.716769612809E+03    0.29358E-07   -0.11723E-07  1668   0.285E-04    0.421E-04
RMM:  23    -0.716769612808E+03    0.85856E-09   -0.23012E-08  1266   0.165E-04
  13 F= -.71676961E+03 E0= -.71676168E+03  d E =-.241638E+00
       N       E                     dE             d eps       ncg     rms          rms(c)
DAV:   1    -0.716758053571E+03    0.11559E-01   -0.40728E+01  1888   0.820E+00    0.169E+00
RMM:   2    -0.716891075229E+03   -0.13302E+00   -0.15359E+00  1958   0.161E+00    0.394E-01
RMM:   3    -0.716914378043E+03   -0.23303E-01   -0.30140E-01  2246   0.706E-01    0.666E-01
RMM:   4    -0.716915243349E+03   -0.86531E-03   -0.38917E-02  2160   0.231E-01    0.527E-01
RMM:   5    -0.716910194405E+03    0.50489E-02   -0.12337E-02  1951   0.127E-01    0.190E-01
RMM:   6    -0.716909382463E+03    0.81194E-03   -0.10240E-02  1941   0.107E-01    0.120E-01
RMM:   7    -0.716908715460E+03    0.66700E-03   -0.12130E-03  2141   0.427E-02    0.663E-02
RMM:   8    -0.716908392475E+03    0.32299E-03   -0.23606E-03  2016   0.409E-02    0.677E-02
RMM:   9    -0.716908174305E+03    0.21817E-03   -0.23354E-04  2094   0.181E-02    0.432E-02
RMM:  10    -0.716907699470E+03    0.47484E-03   -0.80541E-04  2050   0.190E-02    0.271E-02
RMM:  11    -0.716907456636E+03    0.24283E-03   -0.35822E-04  2095   0.142E-02    0.491E-02
RMM:  12    -0.716907264187E+03    0.19245E-03   -0.31950E-04  2124   0.132E-02    0.150E-02
RMM:  13    -0.716907135092E+03    0.12909E-03   -0.36869E-04  2175   0.120E-02    0.169E-02
RMM:  14    -0.716907117942E+03    0.17151E-04   -0.64974E-05  2311   0.573E-03    0.954E-03
RMM:  15    -0.716907107644E+03    0.10298E-04   -0.14684E-05  2101   0.317E-03    0.504E-03
RMM:  16    -0.716907101022E+03    0.66221E-05   -0.16196E-05  2078   0.326E-03    0.804E-03
RMM:  17    -0.716907094780E+03    0.62419E-05   -0.11530E-05  2000   0.275E-03    0.511E-03
RMM:  18    -0.716907092826E+03    0.19541E-05   -0.71488E-06  2158   0.176E-03    0.303E-03
RMM:  19    -0.716907092458E+03    0.36758E-06   -0.29264E-06  2236   0.124E-03    0.262E-03
RMM:  20    -0.716907092522E+03   -0.63847E-07   -0.20557E-06  2017   0.117E-03    0.202E-03
RMM:  21    -0.716907092313E+03    0.20883E-06   -0.36110E-07  2068   0.548E-04    0.122E-03
RMM:  22    -0.716907092223E+03    0.90284E-07   -0.45764E-07  1815   0.481E-04    0.348E-04
RMM:  23    -0.716907092233E+03   -0.10241E-07   -0.44378E-08  1429   0.232E-04    0.262E-04
RMM:  24    -0.716907092225E+03    0.82146E-08   -0.16121E-08  1231   0.124E-04
  14 F= -.71690709E+03 E0= -.71690016E+03  d E =-.137479E+00
       N       E                     dE             d eps       ncg     rms          rms(c)
DAV:   1    -0.716765186654E+03    0.14191E+00   -0.52035E+01  1808   0.922E+00    0.188E+00
RMM:   2    -0.716932352972E+03   -0.16717E+00   -0.19159E+00  1951   0.183E+00    0.455E-01
RMM:   3    -0.716962905398E+03   -0.30552E-01   -0.38678E-01  2244   0.803E-01    0.767E-01
RMM:   4    -0.716964145161E+03   -0.12398E-02   -0.49941E-02  2152   0.262E-01    0.600E-01
RMM:   5    -0.716957660933E+03    0.64842E-02   -0.16763E-02  1948   0.145E-01    0.211E-01
RMM:   6    -0.716956695700E+03    0.96523E-03   -0.13064E-02  1939   0.121E-01    0.142E-01
RMM:   7    -0.716955782111E+03    0.91359E-03   -0.15594E-03  2129   0.489E-02    0.810E-02
RMM:   8    -0.716955352395E+03    0.42972E-03   -0.30895E-03  2024   0.468E-02    0.724E-02
RMM:   9    -0.716955076875E+03    0.27552E-03   -0.30338E-04  2117   0.206E-02    0.508E-02
RMM:  10    -0.716954487287E+03    0.58959E-03   -0.78285E-04  2038   0.192E-02    0.318E-02
RMM:  11    -0.716954181905E+03    0.30538E-03   -0.39136E-04  2122   0.142E-02    0.534E-02
RMM:  12    -0.716953938621E+03    0.24328E-03   -0.56045E-04  2178   0.170E-02    0.171E-02
RMM:  13    -0.716953799588E+03    0.13903E-03   -0.29610E-04  2093   0.114E-02    0.168E-02
RMM:  14    -0.716953774096E+03    0.25492E-04   -0.12921E-04  2268   0.714E-03    0.160E-02
RMM:  15    -0.716953759907E+03    0.14189E-04   -0.22926E-05  2007   0.457E-03    0.566E-03
RMM:  16    -0.716953753288E+03    0.66192E-05   -0.26938E-05  2036   0.433E-03    0.113E-02
RMM:  17    -0.716953745527E+03    0.77606E-05   -0.13584E-05  2016   0.329E-03    0.512E-03
RMM:  18    -0.716953742305E+03    0.32220E-05   -0.11818E-05  2184   0.219E-03    0.330E-03
RMM:  19    -0.716953741923E+03    0.38246E-06   -0.29987E-06  2191   0.133E-03    0.368E-03
RMM:  20    -0.716953741716E+03    0.20639E-06   -0.21388E-06  1993   0.120E-03    0.134E-03
RMM:  21    -0.716953741731E+03   -0.14108E-07   -0.88353E-07  2199   0.806E-04    0.178E-03
RMM:  22    -0.716953741581E+03    0.14981E-06   -0.19257E-07  1786   0.405E-04    0.692E-04
RMM:  23    -0.716953741527E+03    0.53333E-07   -0.21886E-07  1672   0.350E-04    0.410E-04
RMM:  24    -0.716953741547E+03   -0.19816E-07   -0.29989E-08  1286   0.176E-04    0.148E-04
RMM:  25    -0.716953741543E+03    0.39727E-08   -0.10353E-08  1160   0.108E-04
  15 F= -.71695374E+03 E0= -.71694800E+03  d E =-.184129E+00
       N       E                     dE             d eps       ncg     rms          rms(c)
DAV:   1    -0.716951215003E+03    0.25265E-02   -0.27876E+01  1848   0.690E+00    0.164E+00
RMM:   2    -0.717040568611E+03   -0.89354E-01   -0.10575E+00  1964   0.143E+00    0.414E-01
RMM:   3    -0.717059123165E+03   -0.18555E-01   -0.23740E-01  2261   0.630E-01    0.711E-01
RMM:   4    -0.717059532053E+03   -0.40889E-03   -0.26996E-02  2159   0.200E-01    0.535E-01
RMM:   5    -0.717055505357E+03    0.40267E-02   -0.11614E-02  1956   0.116E-01    0.186E-01
RMM:   6    -0.717056241043E+03   -0.73569E-03   -0.16674E-02  1980   0.121E-01    0.235E-01
RMM:   7    -0.717054902889E+03    0.13382E-02   -0.22125E-03  1980   0.493E-02    0.114E-01
RMM:   8    -0.717055082973E+03   -0.18008E-03   -0.87214E-03  2142   0.679E-02    0.113E-01
RMM:   9    -0.717054738431E+03    0.34454E-03   -0.52302E-04  2033   0.259E-02    0.694E-02
RMM:  10    -0.717054640594E+03    0.97838E-04   -0.21049E-04  2196   0.129E-02    0.621E-02
RMM:  11    -0.717054518548E+03    0.12205E-03   -0.13880E-04  2171   0.914E-03    0.761E-02
RMM:  12    -0.717054409530E+03    0.10902E-03   -0.25559E-04  2042   0.119E-02    0.403E-02
RMM:  13    -0.717054333721E+03    0.75809E-04   -0.95942E-05  2066   0.848E-03    0.119E-02
RMM:  14    -0.717054286770E+03    0.46951E-04   -0.12269E-04  2100   0.748E-03    0.206E-02
RMM:  15    -0.717054273424E+03    0.13346E-04   -0.37494E-05  2207   0.432E-03    0.184E-02
RMM:  16    -0.717054259819E+03    0.13605E-04   -0.29478E-05  2230   0.371E-03    0.928E-03
RMM:  17    -0.717054256055E+03    0.37637E-05   -0.34852E-05  2285   0.395E-03    0.456E-03
RMM:  18    -0.717054254961E+03    0.10940E-05   -0.28339E-06  2069   0.179E-03    0.460E-03
RMM:  19    -0.717054254264E+03    0.69711E-06   -0.18715E-06  2077   0.118E-03    0.165E-03
RMM:  20    -0.717054253882E+03    0.38195E-06   -0.32171E-06  2179   0.118E-03    0.221E-03
RMM:  21    -0.717054253672E+03    0.21028E-06   -0.50052E-07  2074   0.607E-04    0.137E-03
RMM:  22    -0.717054253645E+03    0.26746E-07   -0.62258E-07  2058   0.511E-04    0.402E-04
RMM:  23    -0.717054253611E+03    0.33830E-07   -0.45240E-08  1616   0.258E-04    0.391E-04
RMM:  24    -0.717054253626E+03   -0.15330E-07   -0.15705E-07  1660   0.269E-04    0.444E-04
RMM:  25    -0.717054253612E+03    0.14214E-07    0.36485E-10  1219   0.142E-04    0.293E-04
RMM:  26    -0.717054253601E+03    0.11027E-07   -0.56660E-08  1205   0.126E-04    0.870E-05
RMM:  27    -0.717054253597E+03    0.45766E-08    0.14310E-08  1063   0.950E-05
  16 F= -.71705425E+03 E0= -.71704951E+03  d E =-.100512E+00
       N       E                     dE             d eps       ncg     rms          rms(c)
DAV:   1    -0.717006668569E+03    0.47585E-01   -0.20491E+01  1888   0.591E+00    0.141E+00
RMM:   2    -0.717071488802E+03   -0.64820E-01   -0.76544E-01  1970   0.122E+00    0.356E-01
RMM:   3    -0.717084984871E+03   -0.13496E-01   -0.17151E-01  2249   0.536E-01    0.609E-01
RMM:   4    -0.717085278881E+03   -0.29401E-03   -0.20160E-02  2163   0.172E-01    0.460E-01
RMM:   5    -0.717082293830E+03    0.29851E-02   -0.87393E-03  1952   0.990E-02    0.155E-01
RMM:   6    -0.717082981291E+03   -0.68746E-03   -0.12963E-02  1980   0.106E-01    0.216E-01
RMM:   7    -0.717081850574E+03    0.11307E-02   -0.19509E-03  1941   0.440E-02    0.970E-02
RMM:   8    -0.717082040512E+03   -0.18994E-03   -0.68990E-03  2138   0.599E-02    0.101E-01
RMM:   9    -0.717081766835E+03    0.27368E-03   -0.41952E-04  2054   0.230E-02    0.623E-02
RMM:  10    -0.717081700586E+03    0.66249E-04   -0.14376E-04  2180   0.110E-02    0.602E-02
RMM:  11    -0.717081587564E+03    0.11302E-03   -0.13730E-04  2080   0.884E-03    0.665E-02
RMM:  12    -0.717081513506E+03    0.74058E-04   -0.25536E-04  2115   0.114E-02    0.353E-02
RMM:  13    -0.717081461524E+03    0.51983E-04   -0.67618E-05  2039   0.729E-03    0.973E-03
RMM:  14    -0.717081434806E+03    0.26718E-04   -0.11616E-04  2174   0.765E-03    0.227E-02
RMM:  15    -0.717081424623E+03    0.10184E-04   -0.20780E-05  2212   0.364E-03    0.204E-02
RMM:  16    -0.717081412083E+03    0.12540E-04   -0.30464E-05  2207   0.379E-03    0.109E-02
RMM:  17    -0.717081407361E+03    0.47221E-05   -0.28400E-05  2317   0.367E-03    0.309E-03
RMM:  18    -0.717081406473E+03    0.88822E-06   -0.25788E-06  2017   0.176E-03    0.490E-03
RMM:  19    -0.717081406057E+03    0.41577E-06   -0.34070E-06  2189   0.135E-03    0.221E-03
RMM:  20    -0.717081405599E+03    0.45835E-06   -0.12422E-06  2195   0.805E-04    0.107E-03
RMM:  21    -0.717081405498E+03    0.10026E-06   -0.46299E-07  2027   0.570E-04    0.173E-03
RMM:  22    -0.717081405469E+03    0.28998E-07   -0.16499E-07  1926   0.332E-04    0.103E-03
RMM:  23    -0.717081405428E+03    0.41313E-07   -0.17235E-07  1827   0.297E-04    0.418E-04
RMM:  24    -0.717081405439E+03   -0.11289E-07   -0.85635E-08  1502   0.230E-04    0.277E-04
RMM:  25    -0.717081405434E+03    0.51878E-08   -0.25922E-08  1279   0.153E-04
  17 F= -.71708141E+03 E0= -.71707736E+03  d E =-.127664E+00
       N       E                     dE             d eps       ncg     rms          rms(c)
DAV:   1    -0.717026877000E+03    0.54528E-01   -0.41038E+01  1832   0.821E+00    0.156E+00
RMM:   2    -0.717152307279E+03   -0.12543E+00   -0.14068E+00  1965   0.162E+00    0.335E-01
RMM:   3    -0.717173157311E+03   -0.20850E-01   -0.25944E-01  2205   0.690E-01    0.610E-01
RMM:   4    -0.717174856940E+03   -0.16996E-02   -0.40012E-02  2183   0.236E-01    0.498E-01
RMM:   5    -0.717170819789E+03    0.40372E-02   -0.90066E-03  1960   0.113E-01    0.214E-01
RMM:   6    -0.717170108157E+03    0.71163E-03   -0.13428E-02  1949   0.115E-01    0.143E-01
RMM:   7    -0.717169663189E+03    0.44497E-03   -0.11607E-03  2101   0.446E-02    0.920E-02
RMM:   8    -0.717169433328E+03    0.22986E-03   -0.26523E-03  2030   0.438E-02    0.480E-02
RMM:   9    -0.717169343143E+03    0.90185E-04   -0.31728E-04  1929   0.202E-02    0.209E-02
RMM:  10    -0.717169304493E+03    0.38649E-04   -0.22007E-04  2133   0.120E-02    0.172E-02
RMM:  11    -0.717169269846E+03    0.34647E-04   -0.12197E-04  2040   0.991E-03    0.220E-02
RMM:  12    -0.717169248904E+03    0.20942E-04   -0.66900E-05  2033   0.679E-03    0.796E-03
RMM:  13    -0.717169239010E+03    0.98940E-05   -0.47594E-05  2187   0.507E-03    0.146E-02
RMM:  14    -0.717169231501E+03    0.75086E-05   -0.15431E-05  2205   0.291E-03    0.119E-02
RMM:  15    -0.717169228333E+03    0.31685E-05   -0.58538E-06  2171   0.192E-03    0.638E-03
RMM:  16    -0.717169226769E+03    0.15636E-05   -0.32216E-06  2226   0.148E-03    0.202E-03
RMM:  17    -0.717169225676E+03    0.10929E-05   -0.10321E-06  2194   0.788E-04    0.113E-03
RMM:  18    -0.717169224708E+03    0.96830E-06   -0.10550E-06  2007   0.746E-04    0.181E-03
RMM:  19    -0.717169224212E+03    0.49576E-06   -0.11788E-06  2188   0.760E-04    0.805E-04
RMM:  20    -0.717169223930E+03    0.28195E-06   -0.72256E-07  1991   0.725E-04    0.266E-03
RMM:  21    -0.717169223760E+03    0.17044E-06   -0.41125E-07  2044   0.443E-04    0.177E-03
RMM:  22    -0.717169223669E+03    0.90673E-07   -0.34280E-07  2083   0.482E-04    0.538E-04
RMM:  23    -0.717169223675E+03   -0.52023E-08   -0.33000E-08  1493   0.208E-04
  18 F= -.71716922E+03 E0= -.71716561E+03  d E =-.878182E-01
       N       E                     dE             d eps       ncg     rms          rms(c)
DAV:   1    -0.717141706574E+03    0.27517E-01   -0.10815E+01  1888   0.423E+00    0.805E-01
RMM:   2    -0.717175133275E+03   -0.33427E-01   -0.37392E-01  1958   0.842E-01    0.171E-01
RMM:   3    -0.717180674714E+03   -0.55414E-02   -0.68969E-02  2203   0.360E-01    0.313E-01
RMM:   4    -0.717181208855E+03   -0.53414E-03   -0.11073E-02  2180   0.126E-01    0.259E-01
RMM:   5    -0.717180164765E+03    0.10441E-02   -0.23030E-03  1964   0.589E-02    0.118E-01
RMM:   6    -0.717180028218E+03    0.13655E-03   -0.47992E-03  1944   0.678E-02    0.976E-02
RMM:   7    -0.717179839872E+03    0.18835E-03   -0.37907E-04  1976   0.256E-02    0.566E-02
RMM:   8    -0.717179817931E+03    0.21942E-04   -0.15947E-03  2099   0.308E-02    0.481E-02
RMM:   9    -0.717179737952E+03    0.79978E-04   -0.19017E-04  1934   0.143E-02    0.151E-02
RMM:  10    -0.717179728720E+03    0.92318E-05   -0.16788E-04  2152   0.960E-03    0.971E-03
RMM:  11    -0.717179716972E+03    0.11748E-04   -0.26591E-05  2099   0.495E-03    0.132E-02
RMM:  12    -0.717179715947E+03    0.10251E-05   -0.32174E-05  1998   0.470E-03    0.970E-03
RMM:  13    -0.717179712414E+03    0.35333E-05   -0.12096E-05  2228   0.306E-03    0.124E-02
RMM:  14    -0.717179706935E+03    0.54786E-05   -0.99815E-06  2076   0.234E-03    0.120E-02
RMM:  15    -0.717179705145E+03    0.17897E-05   -0.57204E-06  2182   0.195E-03    0.626E-03
RMM:  16    -0.717179704370E+03    0.77500E-06   -0.35580E-06  2080   0.175E-03    0.157E-03
RMM:  17    -0.717179704175E+03    0.19498E-06   -0.68431E-07  2053   0.710E-04    0.186E-03
RMM:  18    -0.717179704118E+03    0.57789E-07   -0.78160E-07  1953   0.703E-04    0.207E-03
RMM:  19    -0.717179703776E+03    0.34174E-06   -0.32446E-07  1976   0.447E-04    0.175E-03
RMM:  20    -0.717179703561E+03    0.21508E-06   -0.32365E-07  2054   0.401E-04    0.249E-03
RMM:  21    -0.717179703380E+03    0.18097E-06   -0.54299E-07  2054   0.545E-04    0.113E-03
RMM:  22    -0.717179703355E+03    0.24633E-07   -0.11060E-07  1796   0.298E-04    0.584E-04
RMM:  23    -0.717179703346E+03    0.96261E-08   -0.28223E-08  1345   0.165E-04
  19 F= -.71717970E+03 E0= -.71717627E+03  d E =-.982979E-01
       N       E                     dE             d eps       ncg     rms          rms(c)
DAV:   1    -0.717138475574E+03    0.41228E-01   -0.30264E+01  1808   0.731E+00    0.140E+00
RMM:   2    -0.717228100586E+03   -0.89625E-01   -0.10188E+00  1976   0.144E+00    0.305E-01
RMM:   3    -0.717244462039E+03   -0.16361E-01   -0.20444E-01  2233   0.620E-01    0.573E-01
RMM:   4    -0.717245678463E+03   -0.12164E-02   -0.29815E-02  2168   0.210E-01    0.457E-01
RMM:   5    -0.717242641762E+03    0.30367E-02   -0.63132E-03  1964   0.996E-02    0.233E-01
RMM:   6    -0.717241829831E+03    0.81193E-03   -0.12653E-02  1939   0.112E-01    0.127E-01
RMM:   7    -0.717241470677E+03    0.35915E-03   -0.11214E-03  2033   0.462E-02    0.104E-01
RMM:   8    -0.717241237010E+03    0.23367E-03   -0.44095E-03  2088   0.557E-02    0.848E-02
RMM:   9    -0.717241070758E+03    0.16625E-03   -0.27616E-04  2018   0.215E-02    0.598E-02
RMM:  10    -0.717240909348E+03    0.16141E-03   -0.21847E-04  1953   0.136E-02    0.409E-02
RMM:  11    -0.717240787567E+03    0.12178E-03   -0.13297E-04  2225   0.858E-03    0.596E-02
RMM:  12    -0.717240623342E+03    0.16423E-03   -0.20254E-04  2123   0.101E-02    0.330E-02
RMM:  13    -0.717240469171E+03    0.15417E-03   -0.37232E-04  2327   0.134E-02    0.146E-02
RMM:  14    -0.717240427604E+03    0.41567E-04   -0.13952E-04  2193   0.782E-03    0.240E-02
RMM:  15    -0.717240419275E+03    0.83294E-05   -0.27526E-05  2197   0.434E-03    0.880E-03
RMM:  16    -0.717240418261E+03    0.10131E-05   -0.24495E-05  2077   0.430E-03    0.786E-03
RMM:  17    -0.717240417904E+03    0.35712E-06   -0.44137E-06  2212   0.217E-03    0.708E-03
RMM:  18    -0.717240416745E+03    0.11598E-05   -0.20687E-06  1967   0.136E-03    0.370E-03
RMM:  19    -0.717240416675E+03    0.70024E-07   -0.35539E-06  2079   0.152E-03    0.155E-03
RMM:  20    -0.717240416652E+03    0.22217E-07   -0.33015E-07  2035   0.649E-04    0.112E-03
RMM:  21    -0.717240416691E+03   -0.38588E-07   -0.26860E-07  1909   0.476E-04    0.122E-03
RMM:  22    -0.717240416637E+03    0.53798E-07   -0.55244E-08  1626   0.234E-04    0.920E-04
RMM:  23    -0.717240416559E+03    0.77936E-07   -0.21910E-07  1818   0.371E-04    0.407E-04
RMM:  24    -0.717240416548E+03    0.10921E-07   -0.26895E-08  1227   0.160E-04    0.455E-04
RMM:  25    -0.717240416555E+03   -0.72578E-08   -0.64448E-08  1134   0.109E-04
  20 F= -.71724042E+03 E0= -.71723706E+03  d E =-.607132E-01
       N       E                     dE             d eps       ncg     rms          rms(c)
DAV:   1    -0.717214009608E+03    0.26407E-01   -0.10634E+01  1904   0.435E+00    0.825E-01
RMM:   2    -0.717245212830E+03   -0.31203E-01   -0.35388E-01  1974   0.857E-01    0.181E-01
RMM:   3    -0.717250839361E+03   -0.56265E-02   -0.70555E-02  2226   0.368E-01    0.337E-01
RMM:   4    -0.717251289364E+03   -0.45000E-03   -0.10768E-02  2173   0.128E-01    0.269E-01
RMM:   5    -0.717250269848E+03    0.10195E-02   -0.21509E-03  1968   0.595E-02    0.144E-01
RMM:   6    -0.717250013118E+03    0.25673E-03   -0.54134E-03  1951   0.720E-02    0.891E-02
RMM:   7    -0.717249846013E+03    0.16711E-03   -0.42131E-04  1994   0.286E-02    0.656E-02
RMM:   8    -0.717249805132E+03    0.40880E-04   -0.22903E-03  2147   0.371E-02    0.633E-02
RMM:   9    -0.717249715290E+03    0.89842E-04   -0.12667E-04  2090   0.139E-02    0.453E-02
RMM:  10    -0.717249654723E+03    0.60567E-04   -0.84054E-05  2029   0.824E-03    0.349E-02
RMM:  11    -0.717249588873E+03    0.65849E-04   -0.11795E-04  2266   0.714E-03    0.323E-02
RMM:  12    -0.717249544305E+03    0.44568E-04   -0.43903E-05  2084   0.519E-03    0.197E-02
RMM:  13    -0.717249494883E+03    0.49422E-04   -0.13841E-04  2358   0.845E-03    0.130E-02
RMM:  14    -0.717249470875E+03    0.24008E-04   -0.68467E-05  2168   0.554E-03    0.164E-02
RMM:  15    -0.717249470444E+03    0.43096E-06   -0.33081E-05  2112   0.479E-03    0.793E-03
RMM:  16    -0.717249469877E+03    0.56695E-06   -0.49960E-06  2115   0.244E-03    0.844E-03
RMM:  17    -0.717249467985E+03    0.18923E-05   -0.67742E-06  2110   0.205E-03    0.439E-03
RMM:  18    -0.717249467995E+03   -0.10281E-07   -0.26659E-06  2261   0.136E-03    0.202E-03
RMM:  19    -0.717249468013E+03   -0.17892E-07   -0.29025E-07  2020   0.538E-04    0.927E-04
RMM:  20    -0.717249467951E+03    0.61540E-07   -0.97075E-08  1760   0.296E-04    0.407E-04
RMM:  21    -0.717249467914E+03    0.37217E-07   -0.22479E-08  1433   0.234E-04    0.275E-04
RMM:  22    -0.717249467903E+03    0.11609E-07   -0.11680E-07  1283   0.169E-04    0.249E-04
RMM:  23    -0.717249467892E+03    0.10976E-07    0.29203E-09  1171   0.127E-04    0.152E-04
RMM:  24    -0.717249467894E+03   -0.20591E-08   -0.74380E-08  1125   0.105E-04
  21 F= -.71724947E+03 E0= -.71724614E+03  d E =-.697645E-01
       N       E                     dE             d eps       ncg     rms          rms(c)
DAV:   1    -0.717258196406E+03   -0.87285E-02   -0.13419E+01  1840   0.478E+00    0.115E+00
RMM:   2    -0.717301359401E+03   -0.43163E-01   -0.50974E-01  2001   0.103E+00    0.249E-01
RMM:   3    -0.717311611701E+03   -0.10252E-01   -0.12326E-01  2299   0.447E-01    0.529E-01
RMM:   4    -0.717311659675E+03   -0.47973E-04   -0.12641E-02  2117   0.139E-01    0.394E-01
RMM:   5    -0.717309937238E+03    0.17224E-02   -0.29489E-03  1980   0.647E-02    0.239E-01
RMM:   6    -0.717309764482E+03    0.17276E-03   -0.12872E-02  2055   0.955E-02    0.126E-01
RMM:   7    -0.717309516051E+03    0.24843E-03   -0.79605E-04  2080   0.350E-02    0.117E-01
RMM:   8    -0.717309232824E+03    0.28323E-03   -0.47677E-03  2113   0.501E-02    0.493E-02
RMM:   9    -0.717309118621E+03    0.11420E-03   -0.28265E-04  1917   0.192E-02    0.235E-02
RMM:  10    -0.717309110950E+03    0.76710E-05   -0.33597E-04  2048   0.139E-02    0.121E-02
RMM:  11    -0.717309100326E+03    0.10624E-04   -0.55996E-05  2090   0.727E-03    0.163E-02
RMM:  12    -0.717309098868E+03    0.14581E-05   -0.18720E-05  2044   0.390E-03    0.704E-03
RMM:  13    -0.717309099648E+03   -0.77996E-06   -0.15769E-05  2141   0.348E-03    0.107E-02
RMM:  14    -0.717309095160E+03    0.44877E-05   -0.65668E-06  2052   0.213E-03    0.689E-03
RMM:  15    -0.717309093860E+03    0.13002E-05   -0.47856E-06  2250   0.153E-03    0.523E-03
RMM:  16    -0.717309092782E+03    0.10778E-05   -0.15549E-06  2119   0.102E-03    0.200E-03
RMM:  17    -0.717309092234E+03    0.54825E-06   -0.20900E-06  2091   0.119E-03    0.285E-03
RMM:  18    -0.717309091959E+03    0.27477E-06   -0.17998E-06  2054   0.102E-03    0.155E-03
RMM:  19    -0.717309091848E+03    0.11098E-06   -0.34301E-07  2182   0.492E-04    0.166E-03
RMM:  20    -0.717309091687E+03    0.16133E-06   -0.22706E-07  1882   0.345E-04    0.111E-03
RMM:  21    -0.717309091609E+03    0.78318E-07   -0.27196E-07  1802   0.390E-04    0.742E-04
RMM:  22    -0.717309091584E+03    0.24676E-07   -0.49164E-08  1494   0.226E-04    0.341E-04
RMM:  23    -0.717309091564E+03    0.19823E-07   -0.28410E-08  1330   0.140E-04    0.305E-04
RMM:  24    -0.717309091566E+03   -0.13315E-08   -0.31579E-08  1323   0.136E-04
  22 F= -.71730909E+03 E0= -.71730568E+03  d E =-.596237E-01
       N       E                     dE             d eps       ncg     rms          rms(c)
DAV:   1    -0.717264030008E+03    0.45062E-01   -0.17516E+01  1808   0.548E+00    0.134E+00
RMM:   2    -0.717322419692E+03   -0.58390E-01   -0.68848E-01  1996   0.118E+00    0.285E-01
RMM:   3    -0.717336690460E+03   -0.14271E-01   -0.17003E-01  2307   0.520E-01    0.612E-01
RMM:   4    -0.717336605309E+03    0.85152E-04   -0.15761E-02  2109   0.157E-01    0.456E-01
RMM:   5    -0.717334296387E+03    0.23089E-02   -0.37486E-03  1974   0.729E-02    0.276E-01
RMM:   6    -0.717334004162E+03    0.29223E-03   -0.16454E-02  2057   0.109E-01    0.141E-01
RMM:   7    -0.717333734581E+03    0.26958E-03   -0.10271E-03  2068   0.402E-02    0.136E-01
RMM:   8    -0.717333342897E+03    0.39168E-03   -0.60000E-03  2114   0.565E-02    0.552E-02
RMM:   9    -0.717333201067E+03    0.14183E-03   -0.35463E-04  1926   0.216E-02    0.267E-02
RMM:  10    -0.717333190813E+03    0.10253E-04   -0.41696E-04  2052   0.155E-02    0.137E-02
RMM:  11    -0.717333177290E+03    0.13524E-04   -0.67311E-05  2103   0.812E-03    0.184E-02
RMM:  12    -0.717333175079E+03    0.22109E-05   -0.21399E-05  2090   0.413E-03    0.874E-03
RMM:  13    -0.717333175588E+03   -0.50884E-06   -0.19493E-05  2135   0.386E-03    0.114E-02
RMM:  14    -0.717333170672E+03    0.49154E-05   -0.68081E-06  2103   0.214E-03    0.826E-03
RMM:  15    -0.717333168836E+03    0.18363E-05   -0.53329E-06  2207   0.161E-03    0.608E-03
RMM:  16    -0.717333167335E+03    0.15015E-05   -0.23866E-06  2157   0.122E-03    0.231E-03
RMM:  17    -0.717333166604E+03    0.73015E-06   -0.25967E-06  2079   0.133E-03    0.320E-03
RMM:  18    -0.717333166156E+03    0.44841E-06   -0.18942E-06  2011   0.109E-03    0.150E-03
RMM:  19    -0.717333166026E+03    0.12965E-06   -0.56325E-07  2209   0.602E-04    0.189E-03
RMM:  20    -0.717333165842E+03    0.18405E-06   -0.23699E-07  1933   0.380E-04    0.109E-03
RMM:  21    -0.717333165739E+03    0.10304E-06   -0.34022E-07  1891   0.429E-04    0.709E-04
RMM:  22    -0.717333165705E+03    0.33957E-07   -0.74205E-08  1625   0.259E-04    0.398E-04
RMM:  23    -0.717333165676E+03    0.29442E-07   -0.32299E-08  1357   0.147E-04    0.249E-04
RMM:  24    -0.717333165676E+03   -0.20009E-09   -0.28505E-08  1336   0.134E-04
  23 F= -.71733317E+03 E0= -.71732968E+03  d E =-.836978E-01
       N       E                     dE             d eps       ncg     rms          rms(c)
DAV:   1    -0.717354276865E+03   -0.21111E-01   -0.96356E+00  1840   0.417E+00    0.103E+00
RMM:   2    -0.717386802308E+03   -0.32525E-01   -0.38238E-01  1994   0.913E-01    0.209E-01
RMM:   3    -0.717395423908E+03   -0.86216E-02   -0.10032E-01  2303   0.401E-01    0.476E-01
RMM:   4    -0.717395386541E+03    0.37367E-04   -0.94733E-03  2110   0.124E-01    0.351E-01
RMM:   5    -0.717394390205E+03    0.99634E-03   -0.15029E-03  2049   0.498E-02    0.258E-01
RMM:   6    -0.717393933607E+03    0.45660E-03   -0.10686E-02  2032   0.840E-02    0.930E-02
RMM:   7    -0.717393939238E+03   -0.56307E-05   -0.52221E-04  1928   0.323E-02    0.995E-02
RMM:   8    -0.717393603054E+03    0.33618E-03   -0.20046E-03  2105   0.319E-02    0.199E-02
RMM:   9    -0.717393603824E+03   -0.77031E-06   -0.90186E-05  2181   0.128E-02    0.155E-02
RMM:  10    -0.717393598575E+03    0.52495E-05   -0.23567E-05  1969   0.632E-03    0.696E-03
RMM:  11    -0.717393597924E+03    0.65096E-06   -0.77487E-06  2062   0.319E-03    0.637E-03
RMM:  12    -0.717393597799E+03    0.12469E-06   -0.42408E-06  2142   0.193E-03    0.419E-03
RMM:  13    -0.717393597731E+03    0.68296E-07   -0.98715E-07  2248   0.924E-04    0.262E-03
RMM:  14    -0.717393597662E+03    0.68754E-07   -0.27917E-07  1945   0.551E-04    0.523E-04
RMM:  15    -0.717393597689E+03   -0.26950E-07   -0.23476E-07  1851   0.435E-04    0.118E-03
RMM:  16    -0.717393597691E+03   -0.21828E-08   -0.55036E-08  1591   0.261E-04
  24 F= -.71739360E+03 E0= -.71739008E+03  d E =-.604320E-01
       N       E                     dE             d eps       ncg     rms          rms(c)
DAV:   1    -0.717122176932E+03    0.27142E+00   -0.77420E+01  1824   0.118E+01    0.301E+00
RMM:   2    -0.717391970613E+03   -0.26979E+00   -0.31828E+00  1990   0.263E+00    0.616E-01
RMM:   3    -0.717461694480E+03   -0.69724E-01   -0.82303E-01  2309   0.116E+00    0.137E+00
RMM:   4    -0.717460765348E+03    0.92913E-03   -0.77589E-02  2098   0.358E-01    0.997E-01
RMM:   5    -0.717451577194E+03    0.91882E-02   -0.14517E-02  2006   0.154E-01    0.675E-01
RMM:   6    -0.717448121329E+03    0.34559E-02   -0.64510E-02  2039   0.217E-01    0.219E-01
RMM:   7    -0.717448355600E+03   -0.23427E-03   -0.45136E-03  1975   0.891E-02    0.238E-01
RMM:   8    -0.717446583848E+03    0.17718E-02   -0.11959E-02  2075   0.865E-02    0.545E-02
RMM:   9    -0.717446527208E+03    0.56640E-04   -0.64615E-04  2053   0.342E-02    0.416E-02
RMM:  10    -0.717446501808E+03    0.25400E-04   -0.29752E-04  1970   0.187E-02    0.225E-02
RMM:  11    -0.717446501966E+03   -0.15817E-06   -0.66476E-05  2071   0.946E-03    0.180E-02
RMM:  12    -0.717446504339E+03   -0.23721E-05   -0.23194E-05  2173   0.472E-03    0.175E-02
RMM:  13    -0.717446500235E+03    0.41035E-05   -0.10860E-05  1997   0.310E-03    0.798E-03
RMM:  14    -0.717446500738E+03   -0.50243E-06   -0.23144E-05  2002   0.414E-03    0.634E-03
RMM:  15    -0.717446500089E+03    0.64887E-06   -0.20087E-06  1965   0.167E-03    0.312E-03
RMM:  16    -0.717446499897E+03    0.19202E-06   -0.83545E-07  2039   0.898E-04    0.176E-03
RMM:  17    -0.717446499844E+03    0.52365E-07   -0.32086E-07  2088   0.477E-04    0.175E-03
RMM:  18    -0.717446499730E+03    0.11388E-06   -0.93429E-08  1662   0.294E-04    0.998E-04
RMM:  19    -0.717446499613E+03    0.11768E-06   -0.58097E-08  1586   0.204E-04    0.814E-04
RMM:  20    -0.717446499575E+03    0.38050E-07   -0.47955E-08  1526   0.169E-04    0.592E-04
RMM:  21    -0.717446499538E+03    0.36493E-07   -0.15334E-07  1913   0.256E-04    0.273E-04
RMM:  22    -0.717446499511E+03    0.27219E-07   -0.18999E-08  1225   0.128E-04    0.331E-04
RMM:  23    -0.717446499486E+03    0.25000E-07   -0.14325E-08  1143   0.998E-05    0.233E-04
RMM:  24    -0.717446499486E+03    0.58208E-10   -0.92640E-09  1124   0.875E-05
  25 F= -.71744650E+03 E0= -.71744289E+03  d E =-.113334E+00
       N       E                     dE             d eps       ncg     rms          rms(c)
DAV:   1    -0.717461761281E+03   -0.15262E-01   -0.27164E+00  1936   0.219E+00    0.513E-01
RMM:   2    -0.717470356900E+03   -0.85956E-02   -0.99868E-02  2006   0.463E-01    0.102E-01
RMM:   3    -0.717472475174E+03   -0.21183E-02   -0.24722E-02  2281   0.201E-01    0.230E-01
RMM:   4    -0.717472487236E+03   -0.12062E-04   -0.25103E-03  2122   0.631E-02    0.169E-01
RMM:   5    -0.717472247956E+03    0.23928E-03   -0.39041E-04  2028   0.255E-02    0.125E-01
RMM:   6    -0.717472114705E+03    0.13325E-03   -0.24562E-03  2012   0.411E-02    0.429E-02
RMM:   7    -0.717472112627E+03    0.20782E-05   -0.12977E-04  1930   0.160E-02    0.436E-02
RMM:   8    -0.717472047908E+03    0.64719E-04   -0.42251E-04  2111   0.146E-02    0.924E-03
RMM:   9    -0.717472047533E+03    0.37516E-06   -0.20530E-05  2168   0.599E-03    0.725E-03
RMM:  10    -0.717472046031E+03    0.15015E-05   -0.58472E-06  1986   0.290E-03    0.319E-03
RMM:  11    -0.717472045798E+03    0.23277E-06   -0.19481E-06  2058   0.155E-03    0.311E-03
RMM:  12    -0.717472045745E+03    0.52863E-07   -0.69350E-07  2234   0.817E-04    0.260E-03
RMM:  13    -0.717472045604E+03    0.14173E-06   -0.21142E-07  1917   0.440E-04    0.119E-03
RMM:  14    -0.717472045522E+03    0.81702E-07   -0.48254E-07  1859   0.577E-04    0.106E-03
RMM:  15    -0.717472045503E+03    0.19154E-07   -0.78251E-08  1665   0.291E-04    0.351E-04
RMM:  16    -0.717472045485E+03    0.17746E-07   -0.12825E-07  1799   0.278E-04    0.563E-04
RMM:  17    -0.717472045466E+03    0.18645E-07   -0.30308E-08  1346   0.153E-04    0.355E-04
RMM:  18    -0.717472045445E+03    0.21180E-07   -0.15017E-08  1170   0.107E-04    0.314E-04
RMM:  19    -0.717472045444E+03    0.98589E-09   -0.12623E-08  1130   0.925E-05
  26 F= -.71747205E+03 E0= -.71746844E+03  d E =-.255460E-01
       N       E                     dE             d eps       ncg     rms          rms(c)
DAV:   1    -0.717436395621E+03    0.35650E-01   -0.24466E+01  1824   0.657E+00    0.156E+00
RMM:   2    -0.717516271958E+03   -0.79876E-01   -0.92889E-01  1999   0.140E+00    0.317E-01
RMM:   3    -0.717535082756E+03   -0.18811E-01   -0.22439E-01  2281   0.615E-01    0.691E-01
RMM:   4    -0.717535351816E+03   -0.26906E-03   -0.25220E-02  2113   0.199E-01    0.509E-01
RMM:   5    -0.717532929456E+03    0.24224E-02   -0.41680E-03  2000   0.834E-02    0.352E-01
RMM:   6    -0.717531877810E+03    0.10516E-02   -0.19104E-02  2012   0.119E-01    0.118E-01
RMM:   7    -0.717531839513E+03    0.38296E-04   -0.11720E-03  1989   0.470E-02    0.118E-01
RMM:   8    -0.717531421983E+03    0.41753E-03   -0.35476E-03  2104   0.448E-02    0.316E-02
RMM:   9    -0.717531386732E+03    0.35251E-04   -0.17673E-04  2010   0.175E-02    0.206E-02
RMM:  10    -0.717531380167E+03    0.65657E-05   -0.12043E-04  1944   0.104E-02    0.103E-02
RMM:  11    -0.717531377920E+03    0.22468E-05   -0.18836E-05  2054   0.521E-03    0.101E-02
RMM:  12    -0.717531378591E+03   -0.67127E-06   -0.86380E-06  2148   0.284E-03    0.103E-02
RMM:  13    -0.717531376764E+03    0.18275E-05   -0.25839E-06  2046   0.159E-03    0.514E-03
RMM:  14    -0.717531375574E+03    0.11901E-05   -0.53049E-06  1904   0.204E-03    0.353E-03
RMM:  15    -0.717531375466E+03    0.10795E-06   -0.99545E-07  2114   0.102E-03    0.120E-03
RMM:  16    -0.717531375199E+03    0.26631E-06   -0.11982E-06  2008   0.818E-04    0.140E-03
RMM:  17    -0.717531375001E+03    0.19796E-06   -0.29836E-07  2039   0.431E-04    0.792E-04
RMM:  18    -0.717531374938E+03    0.63039E-07   -0.13293E-06  2103   0.835E-04    0.243E-03
RMM:  19    -0.717531374833E+03    0.10505E-06   -0.12457E-07  1881   0.328E-04    0.202E-03
RMM:  20    -0.717531374753E+03    0.79850E-07   -0.37729E-07  1932   0.412E-04    0.914E-04
RMM:  21    -0.717531374750E+03    0.31723E-08   -0.78274E-08  1584   0.248E-04
  27 F= -.71753137E+03 E0= -.71752779E+03  d E =-.848753E-01
       N       E                     dE             d eps       ncg     rms          rms(c)
DAV:   1    -0.717095283001E+03    0.43609E+00   -0.98074E+01  1824   0.131E+01    0.323E+00
RMM:   2    -0.717444562918E+03   -0.34928E+00   -0.40317E+00  1989   0.280E+00    0.685E-01
RMM:   3    -0.717521579505E+03   -0.77017E-01   -0.93379E-01  2296   0.124E+00    0.141E+00
RMM:   4    -0.717520705736E+03    0.87377E-03   -0.95627E-02  2088   0.386E-01    0.102E+00
RMM:   5    -0.717508643021E+03    0.12063E-01   -0.22221E-02  1960   0.182E-01    0.600E-01
RMM:   6    -0.717506103562E+03    0.25395E-02   -0.57702E-02  1990   0.217E-01    0.209E-01
RMM:   7    -0.717505564909E+03    0.53865E-03   -0.42082E-03  2047   0.881E-02    0.185E-01
RMM:   8    -0.717504645826E+03    0.91908E-03   -0.83880E-03  2012   0.784E-02    0.526E-02
RMM:   9    -0.717504584378E+03    0.61448E-04   -0.50627E-04  1950   0.308E-02    0.360E-02
RMM:  10    -0.717504575249E+03    0.91286E-05   -0.39060E-04  1914   0.202E-02    0.217E-02
RMM:  11    -0.717504563201E+03    0.12048E-04   -0.12298E-04  2060   0.113E-02    0.185E-02
RMM:  12    -0.717504565350E+03   -0.21494E-05   -0.45872E-05  2242   0.627E-03    0.190E-02
RMM:  13    -0.717504553701E+03    0.11650E-04   -0.29407E-05  1846   0.508E-03    0.485E-03
RMM:  14    -0.717504552033E+03    0.16680E-05   -0.15135E-05  2165   0.336E-03    0.378E-03
RMM:  15    -0.717504551045E+03    0.98822E-06   -0.22877E-06  1983   0.159E-03    0.219E-03
RMM:  16    -0.717504549528E+03    0.15166E-05   -0.47117E-06  1913   0.176E-03    0.353E-03
RMM:  17    -0.717504548872E+03    0.65579E-06   -0.10888E-06  2123   0.912E-04    0.227E-03
RMM:  18    -0.717504548034E+03    0.83833E-06   -0.18771E-06  2069   0.987E-04    0.260E-03
RMM:  19    -0.717504547873E+03    0.16106E-06   -0.59222E-07  2070   0.606E-04    0.316E-03
RMM:  20    -0.717504547783E+03    0.89527E-07   -0.48934E-07  2081   0.523E-04    0.150E-03
RMM:  21    -0.717504547750E+03    0.33491E-07   -0.17848E-07  1893   0.347E-04    0.109E-03
RMM:  22    -0.717504547704E+03    0.45497E-07   -0.26010E-07  1989   0.386E-04    0.450E-04
RMM:  23    -0.717504547624E+03    0.79854E-07   -0.89794E-08  1763   0.228E-04    0.213E-04
RMM:  24    -0.717504547608E+03    0.15989E-07   -0.59447E-08  1556   0.174E-04    0.382E-04
RMM:  25    -0.717504547628E+03   -0.19740E-07   -0.25631E-08  1283   0.135E-04    0.168E-04
RMM:  26    -0.717504547641E+03   -0.12995E-07   -0.10245E-08  1121   0.976E-05    0.186E-04
RMM:  27    -0.717504547643E+03   -0.15752E-08   -0.11432E-08  1084   0.101E-04
  28 F= -.71750455E+03 E0= -.71750128E+03  d E =-.580482E-01
       N       E                     dE             d eps       ncg     rms          rms(c)
DAV:   1    -0.717362915983E+03    0.14163E+00   -0.45962E+01  1824   0.894E+00    0.214E+00
RMM:   2    -0.717518554909E+03   -0.15564E+00   -0.18022E+00  1986   0.194E+00    0.423E-01
RMM:   3    -0.717557228725E+03   -0.38674E-01   -0.44870E-01  2273   0.853E-01    0.957E-01
RMM:   4    -0.717557450736E+03   -0.22201E-03   -0.45000E-02  2113   0.266E-01    0.718E-01
RMM:   5    -0.717552960481E+03    0.44903E-02   -0.73454E-03  2015   0.109E-01    0.516E-01
RMM:   6    -0.717551547149E+03    0.14133E-02   -0.51471E-02  2060   0.185E-01    0.227E-01
RMM:   7    -0.717550925506E+03    0.62164E-03   -0.19768E-03  1977   0.628E-02    0.212E-01
RMM:   8    -0.717549747845E+03    0.11777E-02   -0.13097E-02  2144   0.794E-02    0.625E-02
RMM:   9    -0.717549613257E+03    0.13459E-03   -0.44395E-04  2027   0.280E-02    0.407E-02
RMM:  10    -0.717549562333E+03    0.50924E-04   -0.25037E-04  1974   0.153E-02    0.159E-02
RMM:  11    -0.717549563471E+03   -0.11384E-05   -0.91090E-05  2275   0.817E-03    0.191E-02
RMM:  12    -0.717549563458E+03    0.13108E-07   -0.78268E-06  2070   0.339E-03    0.155E-02
RMM:  13    -0.717549559420E+03    0.40380E-05   -0.78782E-06  2041   0.254E-03    0.655E-03
RMM:  14    -0.717549557995E+03    0.14249E-05   -0.10228E-05  1969   0.282E-03    0.423E-03
RMM:  15    -0.717549556870E+03    0.11253E-05   -0.25905E-06  2030   0.157E-03    0.154E-03
RMM:  16    -0.717549556398E+03    0.47197E-06   -0.23950E-06  2050   0.120E-03    0.338E-03
RMM:  17    -0.717549556064E+03    0.33385E-06   -0.10413E-06  2185   0.787E-04    0.132E-03
RMM:  18    -0.717549555995E+03    0.69165E-07   -0.33792E-07  2061   0.447E-04    0.802E-04
RMM:  19    -0.717549555926E+03    0.69136E-07   -0.15185E-07  1914   0.286E-04    0.969E-04
RMM:  20    -0.717549555884E+03    0.42117E-07   -0.29464E-08  1282   0.156E-04    0.648E-04
RMM:  21    -0.717549555779E+03    0.10527E-06   -0.73402E-08  1649   0.198E-04    0.263E-04
RMM:  22    -0.717549555761E+03    0.17109E-07   -0.59840E-08  1579   0.189E-04    0.491E-04
RMM:  23    -0.717549555735E+03    0.26743E-07   -0.32728E-08  1322   0.131E-04    0.137E-04
RMM:  24    -0.717549555716E+03    0.18757E-07   -0.21369E-08  1252   0.124E-04    0.284E-04
RMM:  25    -0.717549555713E+03    0.30086E-08   -0.33036E-10  1072   0.945E-05
  29 F= -.71754956E+03 E0= -.71754603E+03  d E =-.103056E+00
       N       E                     dE             d eps       ncg     rms          rms(c)
DAV:   1    -0.717592847770E+03   -0.43292E-01   -0.42653E+00  1880   0.263E+00    0.420E-01
RMM:   2    -0.717605003243E+03   -0.12155E-01   -0.13589E-01  1979   0.507E-01    0.106E-01
RMM:   3    -0.717606493172E+03   -0.14899E-02   -0.20699E-02  2158   0.201E-01    0.135E-01
RMM:   4    -0.717606591127E+03   -0.97955E-04   -0.38113E-03  2180   0.729E-02    0.111E-01
RMM:   5    -0.717606250792E+03    0.34034E-03   -0.12049E-03  1961   0.413E-02    0.283E-02
RMM:   6    -0.717606246726E+03    0.40658E-05   -0.50273E-04  2148   0.263E-02    0.336E-02
RMM:   7    -0.717606222245E+03    0.24481E-04   -0.75199E-05  2081   0.950E-03    0.171E-02
RMM:   8    -0.717606219260E+03    0.29850E-05   -0.14752E-04  2135   0.109E-02    0.144E-02
RMM:   9    -0.717606213161E+03    0.60986E-05   -0.20781E-05  1960   0.584E-03    0.568E-03
RMM:  10    -0.717606211708E+03    0.14527E-05   -0.89504E-06  2164   0.291E-03    0.367E-03
RMM:  11    -0.717606210827E+03    0.88154E-06   -0.38363E-06  2041   0.194E-03    0.469E-03
RMM:  12    -0.717606209681E+03    0.11459E-05   -0.23878E-06  2101   0.128E-03    0.197E-03
RMM:  13    -0.717606208799E+03    0.88129E-06   -0.29246E-06  2056   0.152E-03    0.245E-03
RMM:  14    -0.717606208000E+03    0.79962E-06   -0.13966E-06  2037   0.914E-04    0.203E-03
RMM:  15    -0.717606207675E+03    0.32494E-06   -0.25616E-06  2116   0.131E-03    0.249E-03
RMM:  16    -0.717606207341E+03    0.33406E-06   -0.13958E-06  2074   0.925E-04    0.128E-03
RMM:  17    -0.717606207203E+03    0.13822E-06   -0.52833E-07  1968   0.632E-04    0.943E-04
RMM:  18    -0.717606207190E+03    0.12617E-07   -0.30380E-07  1974   0.396E-04    0.922E-04
RMM:  19    -0.717606207188E+03    0.17062E-08   -0.96041E-08  1704   0.275E-04
  30 F= -.71760621E+03 E0= -.71760272E+03  d E =-.566515E-01
       N       E                     dE             d eps       ncg     rms          rms(c)
DAV:   1    -0.717564742633E+03    0.41465E-01   -0.38394E+01  1888   0.789E+00    0.125E+00
RMM:   2    -0.717672680805E+03   -0.10794E+00   -0.12114E+00  1971   0.150E+00    0.322E-01
RMM:   3    -0.717685543508E+03   -0.12863E-01   -0.18573E-01  2150   0.599E-01    0.399E-01
RMM:   4    -0.717686519039E+03   -0.97553E-03   -0.37137E-02  2185   0.221E-01    0.330E-01
RMM:   5    -0.717683544628E+03    0.29744E-02   -0.10248E-02  1958   0.118E-01    0.913E-02
RMM:   6    -0.717683372734E+03    0.17189E-03   -0.38263E-03  2147   0.723E-02    0.793E-02
RMM:   7    -0.717683219826E+03    0.15291E-03   -0.70205E-04  2159   0.277E-02    0.392E-02
RMM:   8    -0.717683180449E+03    0.39377E-04   -0.55359E-04  2155   0.227E-02    0.249E-02
RMM:   9    -0.717683159874E+03    0.20575E-04   -0.77011E-05  2004   0.119E-02    0.126E-02
RMM:  10    -0.717683142622E+03    0.17252E-04   -0.43554E-05  2171   0.646E-03    0.810E-03
RMM:  11    -0.717683134896E+03    0.77258E-05   -0.21398E-05  2303   0.392E-03    0.726E-03
RMM:  12    -0.717683128746E+03    0.61505E-05   -0.66030E-06  2085   0.216E-03    0.363E-03
RMM:  13    -0.717683116956E+03    0.11789E-04   -0.12223E-05  1957   0.265E-03    0.458E-03
RMM:  14    -0.717683113458E+03    0.34979E-05   -0.57254E-06  2075   0.165E-03    0.417E-03
RMM:  15    -0.717683109560E+03    0.38983E-05   -0.14064E-05  2284   0.283E-03    0.581E-03
RMM:  16    -0.717683107991E+03    0.15688E-05   -0.36406E-06  1946   0.169E-03    0.296E-03
RMM:  17    -0.717683107487E+03    0.50435E-06   -0.27497E-06  2099   0.124E-03    0.345E-03
RMM:  18    -0.717683107176E+03    0.31111E-06   -0.12143E-06  2133   0.926E-04    0.136E-03
RMM:  19    -0.717683107164E+03    0.11642E-07   -0.87537E-07  2077   0.741E-04    0.763E-04
RMM:  20    -0.717683107120E+03    0.44176E-07   -0.25066E-07  1848   0.498E-04    0.537E-04
RMM:  21    -0.717683107088E+03    0.31829E-07   -0.12122E-07  1796   0.239E-04    0.544E-04
RMM:  22    -0.717683107056E+03    0.31690E-07   -0.45782E-08  1546   0.190E-04    0.264E-04
RMM:  23    -0.717683107047E+03    0.92223E-08   -0.46915E-08  1526   0.180E-04
  31 F= -.71768311E+03 E0= -.71767973E+03  d E =-.133551E+00
       N       E                     dE             d eps       ncg     rms          rms(c)
DAV:   1    -0.717709184240E+03   -0.26077E-01   -0.47779E+00  1864   0.293E+00    0.571E-01
RMM:   2    -0.717722351230E+03   -0.13167E-01   -0.15182E-01  1988   0.582E-01    0.126E-01
RMM:   3    -0.717724866844E+03   -0.25156E-02   -0.31405E-02  2220   0.248E-01    0.244E-01
RMM:   4    -0.717725071136E+03   -0.20429E-03   -0.49525E-03  2178   0.871E-02    0.193E-01
RMM:   5    -0.717724586646E+03    0.48449E-03   -0.90533E-04  1975   0.385E-02    0.112E-01
RMM:   6    -0.717724481201E+03    0.10544E-03   -0.32132E-03  2011   0.521E-02    0.640E-02
RMM:   7    -0.717724404909E+03    0.76292E-04   -0.20948E-04  1989   0.197E-02    0.512E-02
RMM:   8    -0.717724382375E+03    0.22534E-04   -0.12770E-03  2131   0.263E-02    0.374E-02
RMM:   9    -0.717724334297E+03    0.48078E-04   -0.76487E-05  1995   0.101E-02    0.210E-02
RMM:  10    -0.717724317037E+03    0.17260E-04   -0.72044E-05  2111   0.653E-03    0.110E-02
RMM:  11    -0.717724311356E+03    0.56809E-05   -0.25987E-05  2243   0.400E-03    0.134E-02
RMM:  12    -0.717724306443E+03    0.49129E-05   -0.10475E-05  1969   0.280E-03    0.677E-03
RMM:  13    -0.717724301617E+03    0.48258E-05   -0.12454E-05  1969   0.309E-03    0.587E-03
RMM:  14    -0.717724296030E+03    0.55877E-05   -0.10746E-05  2061   0.224E-03    0.774E-03
RMM:  15    -0.717724295344E+03    0.68550E-06   -0.93376E-06  2180   0.238E-03    0.450E-03
RMM:  16    -0.717724293928E+03    0.14156E-05   -0.39906E-06  2128   0.152E-03    0.186E-03
RMM:  17    -0.717724293687E+03    0.24155E-06   -0.20976E-06  2185   0.108E-03    0.289E-03
RMM:  18    -0.717724293603E+03    0.83957E-07   -0.52807E-07  2095   0.663E-04    0.161E-03
RMM:  19    -0.717724293458E+03    0.14484E-06   -0.26353E-07  1907   0.422E-04    0.630E-04
RMM:  20    -0.717724293415E+03    0.42972E-07   -0.19449E-07  1802   0.306E-04    0.664E-04
RMM:  21    -0.717724293393E+03    0.22439E-07   -0.51929E-08  1550   0.197E-04    0.284E-04
RMM:  22    -0.717724293392E+03    0.66575E-09   -0.14756E-08  1167   0.110E-04
  32 F= -.71772429E+03 E0= -.71772088E+03  d E =-.411863E-01
       N       E                     dE             d eps       ncg     rms          rms(c)
DAV:   1    -0.717642103613E+03    0.82190E-01   -0.42969E+01  1816   0.879E+00    0.173E+00
RMM:   2    -0.717761894720E+03   -0.11979E+00   -0.13878E+00  1977   0.175E+00    0.384E-01
RMM:   3    -0.717785622557E+03   -0.23728E-01   -0.29465E-01  2231   0.756E-01    0.738E-01
RMM:   4    -0.717787349736E+03   -0.17272E-02   -0.44908E-02  2180   0.259E-01    0.583E-01
RMM:   5    -0.717782741137E+03    0.46086E-02   -0.86927E-03  1968   0.118E-01    0.322E-01
RMM:   6    -0.717781240670E+03    0.15005E-02   -0.19269E-02  1938   0.135E-01    0.124E-01
RMM:   7    -0.717781092605E+03    0.14807E-03   -0.23830E-03  2034   0.637E-02    0.131E-01
RMM:   8    -0.717780545516E+03    0.54709E-03   -0.34674E-03  1997   0.544E-02    0.478E-02
RMM:   9    -0.717780497948E+03    0.47568E-04   -0.34430E-04  2103   0.234E-02    0.367E-02
RMM:  10    -0.717780419412E+03    0.78535E-04   -0.15948E-04  1962   0.136E-02    0.161E-02
RMM:  11    -0.717780385239E+03    0.34174E-04   -0.73030E-05  2148   0.810E-03    0.314E-02
RMM:  12    -0.717780311074E+03    0.74165E-04   -0.16232E-04  2041   0.930E-03    0.884E-03
RMM:  13    -0.717780283385E+03    0.27689E-04   -0.62126E-05  2097   0.657E-03    0.109E-02
RMM:  14    -0.717780240652E+03    0.42733E-04   -0.56609E-05  2030   0.533E-03    0.101E-02
RMM:  15    -0.717780229162E+03    0.11490E-04   -0.36282E-05  2200   0.374E-03    0.929E-03
RMM:  16    -0.717780224673E+03    0.44891E-05   -0.12074E-05  2127   0.281E-03    0.394E-03
RMM:  17    -0.717780222973E+03    0.16999E-05   -0.76993E-06  2121   0.221E-03    0.722E-03
RMM:  18    -0.717780221796E+03    0.11774E-05   -0.29058E-06  2171   0.144E-03    0.370E-03
RMM:  19    -0.717780221396E+03    0.39983E-06   -0.50707E-06  2231   0.175E-03    0.228E-03
RMM:  20    -0.717780221235E+03    0.16048E-06   -0.73266E-07  2174   0.781E-04    0.219E-03
RMM:  21    -0.717780220978E+03    0.25777E-06   -0.48971E-07  1884   0.588E-04    0.158E-03
RMM:  22    -0.717780220892E+03    0.85161E-07   -0.45782E-07  2072   0.528E-04    0.698E-04
RMM:  23    -0.717780220864E+03    0.28707E-07   -0.95819E-08  1535   0.237E-04    0.428E-04
RMM:  24    -0.717780220839E+03    0.24444E-07   -0.15952E-08  1471   0.186E-04    0.324E-04
RMM:  25    -0.717780220847E+03   -0.72614E-08   -0.55698E-08  1165   0.117E-04
  33 F= -.71778022E+03 E0= -.71777664E+03  d E =-.971138E-01
       N       E                     dE             d eps       ncg     rms          rms(c)
DAV:   1    -0.717803114402E+03   -0.22894E-01   -0.51639E+00  1936   0.302E+00    0.671E-01
RMM:   2    -0.717818384937E+03   -0.15271E-01   -0.17878E-01  1967   0.620E-01    0.147E-01
RMM:   3    -0.717821969189E+03   -0.35843E-02   -0.42966E-02  2276   0.275E-01    0.292E-01
RMM:   4    -0.717822094536E+03   -0.12535E-03   -0.51854E-03  2147   0.897E-02    0.222E-01
RMM:   5    -0.717821497339E+03    0.59720E-03   -0.11350E-03  1968   0.415E-02    0.126E-01
RMM:   6    -0.717821427909E+03    0.69429E-04   -0.38096E-03  2038   0.554E-02    0.705E-02
RMM:   7    -0.717821339823E+03    0.88086E-04   -0.25050E-04  2083   0.210E-02    0.584E-02
RMM:   8    -0.717821314370E+03    0.25453E-04   -0.15878E-03  2135   0.291E-02    0.404E-02
RMM:   9    -0.717821254556E+03    0.59815E-04   -0.98081E-05  1912   0.113E-02    0.201E-02
RMM:  10    -0.717821241318E+03    0.13238E-04   -0.94266E-05  2032   0.745E-03    0.785E-03
RMM:  11    -0.717821242159E+03   -0.84098E-06   -0.16601E-05  2198   0.393E-03    0.145E-02
RMM:  12    -0.717821239277E+03    0.28819E-05   -0.12877E-05  1978   0.297E-03    0.616E-03
RMM:  13    -0.717821238716E+03    0.56131E-06   -0.61166E-06  2167   0.232E-03    0.206E-03
RMM:  14    -0.717821238132E+03    0.58321E-06   -0.15980E-06  2228   0.974E-04    0.358E-03
RMM:  15    -0.717821237862E+03    0.27062E-06   -0.16676E-06  2034   0.100E-03    0.181E-03
RMM:  16    -0.717821237682E+03    0.18006E-06   -0.29555E-07  1989   0.526E-04    0.127E-03
RMM:  17    -0.717821237481E+03    0.20036E-06   -0.39848E-07  1940   0.453E-04    0.174E-03
RMM:  18    -0.717821237438E+03    0.43688E-07   -0.40386E-07  2022   0.457E-04    0.105E-03
RMM:  19    -0.717821237401E+03    0.36245E-07   -0.90124E-08  1742   0.274E-04    0.479E-04
RMM:  20    -0.717821237374E+03    0.27376E-07   -0.53130E-08  1605   0.191E-04    0.653E-04
RMM:  21    -0.717821237354E+03    0.20511E-07   -0.86294E-08  1550   0.202E-04    0.146E-04
RMM:  22    -0.717821237349E+03    0.40818E-08   -0.79545E-09  1256   0.127E-04
  34 F= -.71782124E+03 E0= -.71781750E+03  d E =-.410165E-01
       N       E                     dE             d eps       ncg     rms          rms(c)
DAV:   1    -0.717726342941E+03    0.94894E-01   -0.46276E+01  1840   0.903E+00    0.203E+00
RMM:   2    -0.717866419342E+03   -0.14008E+00   -0.16463E+00  1967   0.186E+00    0.449E-01
RMM:   3    -0.717898600097E+03   -0.32181E-01   -0.39055E-01  2279   0.826E-01    0.875E-01
RMM:   4    -0.717899250974E+03   -0.65088E-03   -0.45116E-02  2142   0.263E-01    0.657E-01
RMM:   5    -0.717893536365E+03    0.57146E-02   -0.11798E-02  1966   0.130E-01    0.337E-01
RMM:   6    -0.717892610601E+03    0.92576E-03   -0.23115E-02  1997   0.144E-01    0.152E-01
[...]
RMM:   4    -0.718869135215E+03    0.93035E-06   -0.33665E-05  2083   0.774E-03    0.272E-02
RMM:   5    -0.718869132807E+03    0.24078E-05   -0.48129E-06  2118   0.282E-03    0.243E-02
RMM:   6    -0.718869128229E+03    0.45777E-05   -0.76543E-05  2069   0.640E-03    0.805E-03
RMM:   7    -0.718869130583E+03   -0.23541E-05   -0.67267E-06  2105   0.282E-03    0.110E-02
RMM:   8    -0.718869126245E+03    0.43377E-05   -0.10811E-05  2043   0.219E-03    0.400E-03
RMM:   9    -0.718869125998E+03    0.24709E-06   -0.49530E-06  2114   0.174E-03    0.172E-03
RMM:  10    -0.718869125942E+03    0.55967E-07   -0.28926E-07  1893   0.682E-04    0.889E-04
RMM:  11    -0.718869125944E+03   -0.20373E-08   -0.81723E-08  1554   0.286E-04
 111 F= -.71886913E+03 E0= -.71886422E+03  d E =-.623347E-03
       N       E                     dE             d eps       ncg     rms          rms(c)
DAV:   1    -0.718868774840E+03    0.35110E-03   -0.21115E-01  1824   0.612E-01    0.172E-01
RMM:   2    -0.718869437695E+03   -0.66285E-03   -0.77368E-03  2014   0.134E-01    0.290E-02
RMM:   3    -0.718869691090E+03   -0.25340E-03   -0.27114E-03  2314   0.624E-02    0.870E-02
RMM:   4    -0.718869686086E+03    0.50045E-05   -0.18249E-04  2101   0.180E-02    0.648E-02
RMM:   5    -0.718869675487E+03    0.10599E-04   -0.25547E-05  2144   0.648E-03    0.594E-02
RMM:   6    -0.718869638908E+03    0.36578E-04   -0.30251E-04  2058   0.128E-02    0.211E-02
RMM:   7    -0.718869658878E+03   -0.19970E-04   -0.76517E-05  2079   0.801E-03    0.245E-02
RMM:   8    -0.718869635948E+03    0.22930E-04   -0.57649E-05  1981   0.522E-03    0.881E-03
RMM:   9    -0.718869634871E+03    0.10774E-05   -0.27660E-05  2155   0.403E-03    0.430E-03
RMM:  10    -0.718869634623E+03    0.24729E-06   -0.12639E-06  1907   0.146E-03    0.238E-03
RMM:  11    -0.718869634639E+03   -0.16113E-07   -0.37644E-07  1853   0.737E-04    0.184E-03
RMM:  12    -0.718869634597E+03    0.42004E-07   -0.13263E-07  1760   0.400E-04    0.154E-03
RMM:  13    -0.718869634509E+03    0.88537E-07   -0.74436E-07  1948   0.614E-04    0.445E-04
RMM:  14    -0.718869634494E+03    0.14676E-07   -0.49054E-08  1497   0.249E-04    0.422E-04
RMM:  15    -0.718869634456E+03    0.38679E-07   -0.51244E-08  1507   0.204E-04    0.439E-04
RMM:  16    -0.718869634450E+03    0.57626E-08   -0.35138E-08  1392   0.150E-04
 112 F= -.71886963E+03 E0= -.71886473E+03  d E =-.508505E-03
       N       E                     dE             d eps       ncg     rms          rms(c)
DAV:   1    -0.718869513201E+03    0.12126E-03   -0.42333E-02  1888   0.274E-01    0.770E-02
RMM:   2    -0.718869646354E+03   -0.13315E-03   -0.15545E-03  2011   0.600E-02    0.130E-02
RMM:   3    -0.718869697263E+03   -0.50909E-04   -0.54557E-04  2316   0.280E-02    0.390E-02
RMM:   4    -0.718869696223E+03    0.10401E-05   -0.36436E-05  2095   0.806E-03    0.291E-02
RMM:   5    -0.718869694097E+03    0.21258E-05   -0.51220E-06  2141   0.291E-03    0.266E-02
RMM:   6    -0.718869686770E+03    0.73278E-05   -0.60612E-05  2060   0.572E-03    0.950E-03
RMM:   7    -0.718869690831E+03   -0.40617E-05   -0.15585E-05  2076   0.362E-03    0.110E-02
RMM:   8    -0.718869686193E+03    0.46387E-05   -0.11396E-05  1972   0.234E-03    0.404E-03
RMM:   9    -0.718869685983E+03    0.21003E-06   -0.61532E-06  2147   0.188E-03    0.195E-03
RMM:  10    -0.718869685926E+03    0.56098E-07   -0.25822E-07  1745   0.672E-04    0.111E-03
RMM:  11    -0.718869685930E+03   -0.40054E-08   -0.93739E-08  1639   0.339E-04
 113 F= -.71886969E+03 E0= -.71886479E+03  d E =-.559986E-03
       N       E                     dE             d eps       ncg     rms          rms(c)
DAV:   1    -0.718869405505E+03    0.28042E-03   -0.18826E-01  1824   0.580E-01    0.159E-01
RMM:   2    -0.718870019598E+03   -0.61409E-03   -0.71359E-03  2004   0.130E-01    0.275E-02
RMM:   3    -0.718870234495E+03   -0.21490E-03   -0.23320E-03  2305   0.587E-02    0.803E-02
RMM:   4    -0.718870229356E+03    0.51387E-05   -0.16877E-04  2097   0.172E-02    0.587E-02
RMM:   5    -0.718870218019E+03    0.11336E-04   -0.22924E-05  2130   0.619E-03    0.522E-02
RMM:   6    -0.718870193846E+03    0.24174E-04   -0.35255E-04  2053   0.140E-02    0.167E-02
RMM:   7    -0.718870205127E+03   -0.11281E-04   -0.33917E-05  2088   0.629E-03    0.235E-02
RMM:   8    -0.718870186094E+03    0.19033E-04   -0.41519E-05  2020   0.443E-03    0.104E-02
RMM:   9    -0.718870184264E+03    0.18301E-05   -0.28805E-05  2127   0.404E-03    0.462E-03
RMM:  10    -0.718870184028E+03    0.23631E-06   -0.14877E-06  2063   0.155E-03    0.244E-03
RMM:  11    -0.718870184080E+03   -0.52751E-07   -0.31823E-07  1964   0.687E-04    0.200E-03
RMM:  12    -0.718870183982E+03    0.98837E-07   -0.20582E-07  1869   0.436E-04    0.171E-03
RMM:  13    -0.718870183896E+03    0.86049E-07   -0.10946E-06  1945   0.725E-04    0.793E-04
RMM:  14    -0.718870183878E+03    0.17299E-07   -0.52397E-08  1535   0.276E-04    0.559E-04
RMM:  15    -0.718870183854E+03    0.24713E-07   -0.78919E-08  1547   0.252E-04    0.314E-04
RMM:  16    -0.718870183855E+03   -0.10077E-08   -0.29687E-08  1310   0.149E-04
 114 F= -.71887018E+03 E0= -.71886529E+03  d E =-.497924E-03
       N       E                     dE             d eps       ncg     rms          rms(c)
DAV:   1    -0.718870183601E+03    0.25208E-06   -0.94299E-05  2096   0.130E-02    0.350E-03
RMM:   2    -0.718870183916E+03   -0.31498E-06   -0.36133E-06  2007   0.292E-03    0.598E-04
RMM:   3    -0.718870184008E+03   -0.91033E-07   -0.10718E-06  2158   0.129E-03    0.189E-03
RMM:   4    -0.718870184003E+03    0.45075E-08   -0.61713E-08  1722   0.401E-04
 115 F= -.71887018E+03 E0= -.71886529E+03  d E =-.498073E-03
       N       E                     dE             d eps       ncg     rms          rms(c)
DAV:   1    -0.718870175522E+03    0.84860E-05   -0.11909E-01  1848   0.461E-01    0.122E-01
RMM:   2    -0.718870547855E+03   -0.37233E-03   -0.43685E-03  2011   0.102E-01    0.201E-02
RMM:   3    -0.718870679176E+03   -0.13132E-03   -0.14238E-03  2289   0.461E-02    0.603E-02
RMM:   4    -0.718870678331E+03    0.84514E-06   -0.11471E-04  2121   0.139E-02    0.449E-02
RMM:   5    -0.718870671100E+03    0.72313E-05   -0.15074E-05  2115   0.495E-03    0.400E-02
RMM:   6    -0.718870658942E+03    0.12158E-04   -0.24298E-04  2072   0.117E-02    0.142E-02
RMM:   7    -0.718870663762E+03   -0.48197E-05   -0.14889E-05  2099   0.457E-03    0.180E-02
RMM:   8    -0.718870651851E+03    0.11910E-04   -0.29102E-05  2049   0.368E-03    0.595E-03
RMM:   9    -0.718870651153E+03    0.69790E-06   -0.11196E-05  2111   0.271E-03    0.241E-03
RMM:  10    -0.718870651082E+03    0.71570E-07   -0.74948E-07  2027   0.109E-03    0.150E-03
RMM:  11    -0.718870651135E+03   -0.53398E-07   -0.25161E-07  1818   0.532E-04    0.150E-03
RMM:  12    -0.718870651085E+03    0.49979E-07   -0.44766E-08  1600   0.265E-04    0.114E-03
RMM:  13    -0.718870651038E+03    0.46970E-07   -0.54145E-07  1820   0.481E-04    0.424E-04
RMM:  14    -0.718870651028E+03    0.10121E-07   -0.61938E-08  1338   0.198E-04    0.270E-04
RMM:  15    -0.718870651024E+03    0.47366E-08   -0.34490E-08  1288   0.153E-04
 116 F= -.71887065E+03 E0= -.71886577E+03  d E =-.467021E-03
       N       E                     dE             d eps       ncg     rms          rms(c)
DAV:   1    -0.718870641654E+03    0.93743E-05   -0.11159E-02  1896   0.141E-01    0.370E-02
RMM:   2    -0.718870676364E+03   -0.34710E-04   -0.40613E-04  2010   0.311E-02    0.614E-03
RMM:   3    -0.718870688653E+03   -0.12289E-04   -0.13302E-04  2274   0.141E-02    0.185E-02
RMM:   4    -0.718870688592E+03    0.61089E-07   -0.10777E-05  2110   0.427E-03    0.139E-02
RMM:   5    -0.718870687940E+03    0.65174E-06   -0.13616E-06  2106   0.154E-03    0.124E-02
RMM:   6    -0.718870686647E+03    0.12932E-05   -0.21907E-05  2069   0.353E-03    0.429E-03
RMM:   7    -0.718870687239E+03   -0.59188E-06   -0.17368E-06  2074   0.150E-03    0.563E-03
RMM:   8    -0.718870686081E+03    0.11580E-05   -0.27982E-06  2010   0.116E-03    0.201E-03
RMM:   9    -0.718870685999E+03    0.82331E-07   -0.13433E-06  1999   0.930E-04    0.800E-04
RMM:  10    -0.718870685987E+03    0.11732E-07   -0.89173E-08  1591   0.384E-04    0.470E-04
RMM:  11    -0.718870685991E+03   -0.44784E-08   -0.67310E-08  1273   0.212E-04
 117 F= -.71887069E+03 E0= -.71886580E+03  d E =-.501988E-03
       N       E                     dE             d eps       ncg     rms          rms(c)
DAV:   1    -0.718870647214E+03    0.38773E-04   -0.13719E-01  1808   0.497E-01    0.123E-01
RMM:   2    -0.718871077033E+03   -0.42982E-03   -0.49946E-03  2013   0.108E-01    0.199E-02
RMM:   3    -0.718871215525E+03   -0.13849E-03   -0.15245E-03  2289   0.485E-02    0.606E-02
RMM:   4    -0.718871215803E+03   -0.27811E-06   -0.13198E-04  2125   0.148E-02    0.457E-02
RMM:   5    -0.718871205722E+03    0.10080E-04   -0.17526E-05  2086   0.537E-03    0.394E-02
RMM:   6    -0.718871195237E+03    0.10485E-04   -0.27433E-04  2068   0.126E-02    0.156E-02
RMM:   7    -0.718871197711E+03   -0.24745E-05   -0.12073E-05  2081   0.455E-03    0.179E-02
RMM:   8    -0.718871185602E+03    0.12109E-04   -0.30272E-05  2052   0.381E-03    0.545E-03
RMM:   9    -0.718871185138E+03    0.46455E-06   -0.10529E-05  2161   0.270E-03    0.237E-03
RMM:  10    -0.718871185048E+03    0.90266E-07   -0.85418E-07  1969   0.117E-03    0.158E-03
RMM:  11    -0.718871185088E+03   -0.40174E-07   -0.38785E-07  1915   0.622E-04    0.152E-03
RMM:  12    -0.718871184996E+03    0.91324E-07   -0.19044E-07  1759   0.370E-04    0.828E-04
RMM:  13    -0.718871184984E+03    0.12024E-07   -0.59664E-07  1865   0.526E-04    0.768E-04
RMM:  14    -0.718871184959E+03    0.25175E-07   -0.10077E-07  1414   0.250E-04    0.338E-04
RMM:  15    -0.718871184960E+03   -0.71668E-09   -0.80564E-08  1478   0.218E-04
 118 F= -.71887118E+03 E0= -.71886630E+03  d E =-.498969E-03
       N       E                     dE             d eps       ncg     rms          rms(c)
DAV:   1    -0.718871158841E+03    0.26118E-04   -0.15444E-02  1872   0.167E-01    0.414E-02
RMM:   2    -0.718871207044E+03   -0.48203E-04   -0.56140E-04  2016   0.364E-02    0.671E-03
RMM:   3    -0.718871222601E+03   -0.15557E-04   -0.17106E-04  2273   0.162E-02    0.201E-02
RMM:   4    -0.718871222591E+03    0.93460E-08   -0.14802E-05  2110   0.495E-03    0.151E-02
RMM:   5    -0.718871221390E+03    0.12013E-05   -0.20072E-06  2049   0.184E-03    0.128E-02
RMM:   6    -0.718871220467E+03    0.92320E-06   -0.32119E-05  2052   0.437E-03    0.546E-03
RMM:   7    -0.718871220507E+03   -0.40425E-07   -0.10837E-06  1895   0.151E-03    0.574E-03
RMM:   8    -0.718871219175E+03    0.13318E-05   -0.39248E-06  2033   0.142E-03    0.145E-03
RMM:   9    -0.718871219189E+03   -0.13311E-07   -0.11076E-06  2168   0.871E-04    0.923E-04
RMM:  10    -0.718871219163E+03    0.25331E-07    0.16539E-08  1566   0.279E-04    0.545E-04
RMM:  11    -0.718871219171E+03   -0.72687E-08   -0.15314E-07  1212   0.188E-04    0.456E-04
RMM:  12    -0.718871219161E+03    0.99753E-08   -0.18323E-08  1160   0.134E-04
 119 F= -.71887122E+03 E0= -.71886634E+03  d E =-.533169E-03
       N       E                     dE             d eps       ncg     rms          rms(c)
DAV:   1    -0.718871245028E+03   -0.25858E-04   -0.83248E-02  1816   0.382E-01    0.105E-01
RMM:   2    -0.718871512225E+03   -0.26720E-03   -0.31516E-03  2011   0.846E-02    0.163E-02
RMM:   3    -0.718871614416E+03   -0.10219E-03   -0.10967E-03  2320   0.388E-02    0.533E-02
RMM:   4    -0.718871612332E+03    0.20835E-05   -0.72374E-05  2100   0.111E-02    0.398E-02
RMM:   5    -0.718871606723E+03    0.56095E-05   -0.97614E-06  2128   0.396E-03    0.360E-02
RMM:   6    -0.718871596238E+03    0.10485E-04   -0.18357E-04  2072   0.973E-03    0.136E-02
RMM:   7    -0.718871601713E+03   -0.54755E-05   -0.15020E-05  2085   0.418E-03    0.160E-02
RMM:   8    -0.718871591400E+03    0.10313E-04   -0.29520E-05  2040   0.355E-03    0.444E-03
RMM:   9    -0.718871591048E+03    0.35241E-06   -0.61891E-06  2185   0.212E-03    0.206E-03
RMM:  10    -0.718871591058E+03   -0.95497E-08   -0.61446E-07  1925   0.879E-04    0.141E-03
RMM:  11    -0.718871591057E+03    0.10114E-08   -0.11226E-07  1732   0.389E-04    0.953E-04
RMM:  12    -0.718871591045E+03    0.11671E-07   -0.59004E-08  1585   0.267E-04    0.834E-04
RMM:  13    -0.718871591017E+03    0.28031E-07   -0.28421E-07  1769   0.355E-04    0.361E-04
RMM:  14    -0.718871591017E+03   -0.68394E-09   -0.30863E-08  1289   0.193E-04
 120 F= -.71887159E+03 E0= -.71886670E+03  d E =-.371857E-03
       N       E                     dE             d eps       ncg     rms          rms(c)
DAV:   1    -0.718871582462E+03    0.85551E-05   -0.11486E-02  1864   0.142E-01    0.393E-02
RMM:   2    -0.718871619412E+03   -0.36950E-04   -0.43809E-04  2015   0.315E-02    0.610E-03
RMM:   3    -0.718871633647E+03   -0.14235E-04   -0.15260E-04  2309   0.144E-02    0.197E-02
RMM:   4    -0.718871633310E+03    0.33719E-06   -0.99731E-06  2094   0.414E-03    0.147E-02
RMM:   5    -0.718871632447E+03    0.86233E-06   -0.13952E-06  2107   0.149E-03    0.131E-02
RMM:   6    -0.718871631233E+03    0.12145E-05   -0.26284E-05  2064   0.369E-03    0.502E-03
RMM:   7    -0.718871631788E+03   -0.55509E-06   -0.16440E-06  2071   0.147E-03    0.574E-03
RMM:   8    -0.718871630485E+03    0.13033E-05   -0.33499E-06  1999   0.121E-03    0.182E-03
RMM:   9    -0.718871630419E+03    0.65746E-07   -0.10145E-06  1958   0.828E-04    0.800E-04
RMM:  10    -0.718871630421E+03   -0.16698E-08   -0.91153E-08  1668   0.373E-04
 121 F= -.71887163E+03 E0= -.71886674E+03  d E =-.411260E-03
       N       E                     dE             d eps       ncg     rms          rms(c)
DAV:   1    -0.718871707844E+03   -0.77426E-04   -0.10164E-01  1840   0.427E-01    0.982E-02
RMM:   2    -0.718871996384E+03   -0.28854E-03   -0.33496E-03  2015   0.889E-02    0.166E-02
RMM:   3    -0.718872082006E+03   -0.85622E-04   -0.96474E-04  2250   0.392E-02    0.471E-02
RMM:   4    -0.718872083377E+03   -0.13713E-05   -0.97865E-05  2159   0.124E-02    0.355E-02
RMM:   5    -0.718872075606E+03    0.77716E-05   -0.11772E-05  2036   0.449E-03    0.297E-02
RMM:   6    -0.718872071911E+03    0.36948E-05   -0.20710E-04  2066   0.110E-02    0.145E-02
RMM:   7    -0.718872071149E+03    0.76200E-06   -0.60919E-06  1961   0.360E-03    0.146E-02
RMM:   8    -0.718872062666E+03    0.84828E-05   -0.33885E-05  2089   0.391E-03    0.289E-03
RMM:   9    -0.718872062836E+03   -0.16969E-06   -0.39213E-06  2341   0.189E-03    0.236E-03
RMM:  10    -0.718872062814E+03    0.21602E-07   -0.18453E-07  1780   0.514E-04    0.156E-03
RMM:  11    -0.718872062741E+03    0.73287E-07   -0.20558E-07  1787   0.413E-04    0.128E-03
RMM:  12    -0.718872062682E+03    0.59212E-07   -0.52264E-07  1850   0.511E-04    0.574E-04
RMM:  13    -0.718872062686E+03   -0.47221E-08   -0.74380E-08  1417   0.249E-04
 122 F= -.71887206E+03 E0= -.71886716E+03  d E =-.432266E-03
       N       E                     dE             d eps       ncg     rms          rms(c)
DAV:   1    -0.718871955581E+03    0.10710E-03   -0.45253E-02  1856   0.285E-01    0.659E-02
RMM:   2    -0.718872083522E+03   -0.12794E-03   -0.14946E-03  2014   0.593E-02    0.111E-02
RMM:   3    -0.718872121979E+03   -0.38457E-04   -0.43357E-04  2251   0.262E-02    0.312E-02
RMM:   4    -0.718872122446E+03   -0.46703E-06   -0.43030E-05  2133   0.825E-03    0.234E-02
RMM:   5    -0.718872118815E+03    0.36306E-05   -0.56238E-06  2041   0.307E-03    0.193E-02
RMM:   6    -0.718872117363E+03    0.14522E-05   -0.89027E-05  2059   0.727E-03    0.951E-03
RMM:   7    -0.718872116968E+03    0.39463E-06   -0.26617E-06  1958   0.239E-03    0.947E-03
RMM:   8    -0.718872113387E+03    0.35814E-05   -0.14075E-05  2092   0.254E-03    0.197E-03
RMM:   9    -0.718872113463E+03   -0.76092E-07   -0.18445E-06  2303   0.127E-03    0.160E-03
RMM:  10    -0.718872113454E+03    0.92441E-08   -0.48906E-08  1551   0.344E-04
 123 F= -.71887211E+03 E0= -.71886720E+03  d E =-.483033E-03
       N       E                     dE             d eps       ncg     rms          rms(c)
DAV:   1    -0.718872176336E+03   -0.62873E-04   -0.67333E-02  1872   0.347E-01    0.903E-02
RMM:   2    -0.718872380194E+03   -0.20386E-03   -0.23921E-03  2010   0.748E-02    0.144E-02
RMM:   3    -0.718872456140E+03   -0.75946E-04   -0.81921E-04  2306   0.341E-02    0.457E-02
RMM:   4    -0.718872455352E+03    0.78814E-06   -0.57447E-05  2112   0.988E-03    0.344E-02
RMM:   5    -0.718872451400E+03    0.39518E-05   -0.74776E-06  2134   0.351E-03    0.315E-02
RMM:   6    -0.718872441929E+03    0.94709E-05   -0.12350E-04  2073   0.806E-03    0.125E-02
RMM:   7    -0.718872448159E+03   -0.62302E-05   -0.18229E-05  2086   0.421E-03    0.147E-02
RMM:   8    -0.718872439670E+03    0.84894E-05   -0.22537E-05  2026   0.315E-03    0.479E-03
RMM:   9    -0.718872439206E+03    0.46424E-06   -0.70075E-06  2062   0.216E-03    0.178E-03
RMM:  10    -0.718872439223E+03   -0.17055E-07   -0.65806E-07  2034   0.941E-04    0.106E-03
RMM:  11    -0.718872439217E+03    0.61336E-08   -0.80967E-08  1619   0.352E-04
 124 F= -.71887244E+03 E0= -.71886751E+03  d E =-.325763E-03
       N       E                     dE             d eps       ncg     rms          rms(c)
DAV:   1    -0.718872429115E+03    0.10108E-04   -0.26818E-02  1936   0.219E-01    0.568E-02
RMM:   2    -0.718872510340E+03   -0.81226E-04   -0.95539E-04  2011   0.472E-02    0.892E-03
RMM:   3    -0.718872540494E+03   -0.30153E-04   -0.32571E-04  2303   0.215E-02    0.287E-02
RMM:   4    -0.718872540131E+03    0.36272E-06   -0.22578E-05  2092   0.624E-03    0.216E-02
RMM:   5    -0.718872538397E+03    0.17338E-05   -0.31631E-06  2126   0.226E-03    0.195E-02
RMM:   6    -0.718872535197E+03    0.32002E-05   -0.53962E-05  2080   0.534E-03    0.780E-03
RMM:   7    -0.718872537170E+03   -0.19735E-05   -0.54251E-06  2101   0.246E-03    0.909E-03
RMM:   8    -0.718872533972E+03    0.31987E-05   -0.79791E-06  2038   0.188E-03    0.316E-03
RMM:   9    -0.718872533761E+03    0.21127E-06   -0.31425E-06  2058   0.140E-03    0.112E-03
RMM:  10    -0.718872533747E+03    0.13642E-07   -0.17199E-07  1836   0.557E-04    0.558E-04
RMM:  11    -0.718872533749E+03   -0.22956E-08   -0.75420E-08  1444   0.271E-04
 125 F= -.71887253E+03 E0= -.71886760E+03  d E =-.420295E-03
       N       E                     dE             d eps       ncg     rms          rms(c)
DAV:   1    -0.718872741653E+03   -0.20791E-03   -0.61360E-02  1824   0.331E-01    0.757E-02
RMM:   2    -0.718872925491E+03   -0.18384E-03   -0.21228E-03  2018   0.709E-02    0.130E-02
RMM:   3    -0.718872976213E+03   -0.50722E-04   -0.57661E-04  2233   0.308E-02    0.355E-02
RMM:   4    -0.718872977797E+03   -0.15845E-05   -0.66241E-05  2163   0.100E-02    0.271E-02
RMM:   5    -0.718872972533E+03    0.52649E-05   -0.77072E-06  1999   0.365E-03    0.219E-02
RMM:   6    -0.718872971432E+03    0.11005E-05   -0.12878E-04  2087   0.896E-03    0.125E-02
RMM:   7    -0.718872970105E+03    0.13269E-05   -0.35580E-06  1932   0.282E-03    0.120E-02
RMM:   8    -0.718872964890E+03    0.52151E-05   -0.19845E-05  2101   0.307E-03    0.296E-03
RMM:   9    -0.718872964918E+03   -0.28322E-07   -0.36852E-06  2321   0.170E-03    0.213E-03
RMM:  10    -0.718872964918E+03    0.66211E-09   -0.18026E-07  1816   0.551E-04    0.170E-03
RMM:  11    -0.718872964827E+03    0.90735E-07   -0.22904E-07  1858   0.388E-04    0.163E-03
RMM:  12    -0.718872964706E+03    0.12096E-06   -0.64119E-07  1897   0.566E-04    0.747E-04
RMM:  13    -0.718872964695E+03    0.10532E-07   -0.94215E-08  1526   0.262E-04    0.522E-04
RMM:  14    -0.718872964686E+03    0.97280E-08   -0.85966E-08  1684   0.278E-04
 126 F= -.71887296E+03 E0= -.71886803E+03  d E =-.430936E-03
