unknown system                          
           1
    -8.907327    8.907327    0.000000
   -17.814655    0.000000    0.000000
     0.000000    0.000000   44.330709
   Cl   Na   O 
    32   204    32
unknown system                          
           1
    -8.907327    8.907327    0.000000
   -17.814655    0.000000    0.000000
     0.000000    0.000000   44.330709
   Cl   Na   O 
    32   204    32
Direct configuration=     1
   0.15284772  0.05351036  0.08469459
   0.15284652  0.05351208  0.18738864
   0.15284543  0.05351245  0.28917208
   0.15284798  0.05351047  0.38979769
   0.15284775  0.30351072  0.08471822
   0.15284747  0.30351212  0.18738088
   0.15285008  0.30351096  0.28914073
   0.15284815  0.30351038  0.38984689
   0.15284786  0.55351012  0.08469460
   0.15284974  0.55351108  0.18738805
   0.15284940  0.55351193  0.28917263
   0.15284788  0.55351070  0.38979778
   0.15284781  0.80351055  0.08471817
   0.15284474  0.80351248  0.18738015
   0.15284693  0.80351188  0.28914133
   0.15284763  0.80351103  0.38984690
   0.65284772  0.05351036  0.08469459
   0.65284652  0.05351208  0.18738865
   0.65284543  0.05351245  0.28917209
   0.65284798  0.05351047  0.38979769
   0.65284775  0.30351072  0.08471822
   0.65284746  0.30351212  0.18738088
   0.65285007  0.30351095  0.28914074
   0.65284813  0.30351038  0.38984688
   0.65284786  0.55351012  0.08469460
   0.65284974  0.55351108  0.18738805
   0.65284939  0.55351194  0.28917264
   0.65284788  0.55351070  0.38979776
   0.65284781  0.80351055  0.08471817
   0.65284474  0.80351248  0.18738014
   0.65284693  0.80351188  0.28914133
   0.65284765  0.80351103  0.38984689
   0.40284855  0.05350907  0.08544990
   0.15264987  0.17857688  0.03384518
   0.40284808  0.05351090  0.18742341
   0.15282029  0.17972408  0.13645686
   0.40284852  0.05350926  0.28920990
   0.15262545  0.17837590  0.23835750
   0.40285012  0.05350844  0.39016408
   0.15277608  0.17777044  0.34026703
   0.40304201  0.17837869  0.03383663
   0.40284974  0.30350828  0.08549788
   0.15305427  0.42843836  0.03384517
   0.40540709  0.17718773  0.13631647
   0.40284583  0.30351908  0.18739780
   0.15284054  0.42732292  0.13645684
   0.40249730  0.17860026  0.23834786
   0.40284831  0.30350903  0.28926139
   0.15306863  0.42865520  0.23835741
   0.40116663  0.17935247  0.34022735
   0.40284951  0.30350894  0.39032152
   0.15292232  0.42924975  0.34026685
   0.40264864  0.42866250  0.03384190
   0.40284882  0.55350865  0.08545021
   0.15264994  0.67857687  0.03384520
   0.40027996  0.42983885  0.13631565
   0.40284669  0.55350971  0.18742385
   0.15282125  0.67972379  0.13645700
   0.40320817  0.42842527  0.23834888
   0.40283558  0.55351239  0.28920780
   0.15262453  0.67837658  0.23835723
   0.40453116  0.42766586  0.34022659
   0.40284982  0.55350885  0.39016445
   0.15277568  0.67777060  0.34026686
   0.40304198  0.67837865  0.03383664
   0.40284996  0.80350794  0.08549755
   0.15305437  0.92843829  0.03384514
   0.40540802  0.67718543  0.13631647
   0.40284568  0.80351057  0.18739722
   0.15283943  0.92732325  0.13645633
   0.40249729  0.67860044  0.23834788
   0.40284962  0.80351021  0.28926072
   0.15306969  0.92865292  0.23835772
   0.40116578  0.67935390  0.34022700
   0.40284928  0.80350929  0.39032106
   0.15292270  0.92924917  0.34026653
   0.40264872  0.92866241  0.03384188
   0.40028078  0.92983869  0.13631573
   0.40320681  0.92841588  0.23834502
   0.40453201  0.92766548  0.34022657
   0.90284852  0.05350908  0.08544989
   0.65264985  0.17857689  0.03384518
   0.90284806  0.05351091  0.18742341
   0.65282029  0.17972410  0.13645686
   0.90284841  0.05350928  0.28920990
   0.65262544  0.17837590  0.23835749
   0.90285028  0.05350834  0.39016407
   0.65277608  0.17777044  0.34026705
   0.90304201  0.17837868  0.03383659
   0.90284973  0.30350827  0.08549786
   0.65305424  0.42843837  0.03384514
   0.90540711  0.17718771  0.13631646
   0.90284585  0.30351906  0.18739779
   0.65284056  0.42732290  0.13645682
   0.90249732  0.17860024  0.23834787
   0.90284825  0.30350906  0.28926140
   0.65306865  0.42865519  0.23835741
   0.90116649  0.17935253  0.34022734
   0.90284965  0.30350883  0.39032153
   0.65292231  0.42924977  0.34026690
   0.90264867  0.42866248  0.03384186
   0.90284880  0.55350865  0.08545020
   0.65264995  0.67857687  0.03384519
   0.90027996  0.42983884  0.13631562
   0.90284663  0.55350972  0.18742385
   0.65282125  0.67972381  0.13645699
   0.90320819  0.42842526  0.23834888
   0.90283557  0.55351241  0.28920780
   0.65262453  0.67837657  0.23835723
   0.90453103  0.42766593  0.34022661
   0.90285004  0.55350876  0.39016445
   0.65277568  0.67777056  0.34026687
   0.90304202  0.67837863  0.03383661
   0.90284993  0.80350794  0.08549754
   0.65305435  0.92843830  0.03384513
   0.90540798  0.67718544  0.13631647
   0.90284568  0.80351056  0.18739723
   0.65283944  0.92732322  0.13645633
   0.90249730  0.67860043  0.23834789
   0.90284958  0.80351022  0.28926074
   0.65306970  0.92865292  0.23835773
   0.90116562  0.67935398  0.34022702
   0.90284949  0.80350918  0.39032108
   0.65292271  0.92924917  0.34026659
   0.90264872  0.92866241  0.03384186
   0.90028077  0.92983870  0.13631572
   0.90320683  0.92841587  0.23834501
   0.90453189  0.92766554  0.34022658
   0.16946254  0.06701966  0.50199610
   0.16986781  0.23320294  0.45674011
   0.16943331  0.06710608  0.59419062
   0.16958320  0.23360491  0.54629070
   0.16945235  0.06706374  0.68804972
   0.16941144  0.23378763  0.64196413
   0.16941167  0.06699651  0.78093054
   0.16951626  0.23368146  0.73485510
   0.16960188  0.06693346  0.87662644
   0.16945761  0.23363852  0.82872385
   0.16924332  0.06752149  0.96614694
   0.16946712  0.23374939  0.92094259
   0.50238900  0.06606728  0.50213790
   0.50344374  0.23288222  0.45682916
   0.50087630  0.06686609  0.59452750
   0.50433857  0.23160937  0.54687660
   0.50301808  0.06542182  0.68772244
   0.50327308  0.23266313  0.64134737
   0.50334352  0.06599824  0.78156537
   0.50292150  0.23211641  0.73513621
   0.50428044  0.06500453  0.87601682
   0.50079073  0.23366168  0.82838474
   0.50379592  0.06596105  0.96608045
   0.50233400  0.23270471  0.92077831
   0.16945483  0.40028243  0.50192227
   0.16953540  0.56682366  0.45681756
   0.16948080  0.40035394  0.59417929
   0.16939625  0.56708928  0.54625969
   0.16954329  0.40033554  0.68803849
   0.16935699  0.56718096  0.64193211
   0.16937596  0.40040268  0.78097716
   0.16956786  0.56703498  0.73484279
   0.16944697  0.40039147  0.87662877
   0.16958999  0.56697386  0.82870155
   0.16945256  0.40049042  0.96616341
   0.16942715  0.56711173  0.92092624
   0.83653842  0.06802276  0.50216078
   0.83523760  0.23465328  0.45681935
   0.83821068  0.06710477  0.59452572
   0.83446696  0.23584530  0.54688467
   0.83584490  0.06860011  0.68777697
   0.83567434  0.23474065  0.64135432
   0.83570210  0.06803104  0.78153828
   0.83588685  0.23527095  0.73513702
   0.83464598  0.06921303  0.87603071
   0.83804448  0.23384905  0.82838270
   0.83526411  0.06806014  0.96604834
   0.83647745  0.23483561  0.92075823
   0.50232126  0.39942887  0.50212815
   0.50370696  0.56601680  0.45682548
   0.50085714  0.40019247  0.59451688
   0.50414486  0.56504001  0.54684210
   0.50293401  0.39879350  0.68772709
   0.50324739  0.56599330  0.64135170
   0.50317297  0.39936174  0.78155928
   0.50291051  0.56544977  0.73514346
   0.50436495  0.39831002  0.87601624
   0.50081701  0.56693472  0.82836534
   0.50346349  0.39950946  0.96608510
   0.50230414  0.56618648  0.92077846
   0.16932891  0.73384562  0.50198376
   0.16960487  0.90017202  0.45680547
   0.16937182  0.73377473  0.59418635
   0.16963920  0.90026173  0.54626888
   0.16951408  0.73371829  0.68804462
   0.16955288  0.90039235  0.64194666
   0.16937472  0.73382745  0.78096004
   0.16954394  0.90031390  0.73485674
   0.16969422  0.73357909  0.87661656
   0.16952106  0.90031367  0.82869405
   0.16926373  0.73415978  0.96615047
   0.16933663  0.90053112  0.92090651
   0.83679679  0.40122518  0.50211486
   0.83543733  0.56788755  0.45680411
   0.83810157  0.40048914  0.59449804
   0.83451671  0.56916561  0.54687764
   0.83587174  0.40196280  0.68776409
   0.83555053  0.56820165  0.64133938
   0.83571746  0.40142956  0.78155683
   0.83591318  0.56860118  0.73513310
   0.83470817  0.40247874  0.87600323
   0.83805456  0.56725971  0.82839560
   0.83532786  0.40131096  0.96611389
   0.83664669  0.56803357  0.92078036
   0.50238259  0.73272866  0.50211855
   0.50375490  0.89932406  0.45680890
   0.50089091  0.73349146  0.59453796
   0.50412294  0.89836693  0.54686559
   0.50293761  0.73211228  0.68774677
   0.50324223  0.89935770  0.64136649
   0.50334208  0.73269569  0.78159077
   0.50289894  0.89879061  0.73513609
   0.50430030  0.73164221  0.87600244
   0.50096586  0.90020825  0.82835819
   0.50348825  0.73283107  0.96608999
   0.50242147  0.89937058  0.92075160
   0.83651098  0.73467253  0.50214102
   0.83522434  0.90127822  0.45683152
   0.83800774  0.73393016  0.59450137
   0.83457333  0.90247481  0.54688647
   0.83586650  0.73528520  0.68778418
   0.83574657  0.90136037  0.64131563
   0.83575026  0.73478302  0.78155839
   0.83592494  0.90192115  0.73513690
   0.83467779  0.73583225  0.87600866
   0.83811792  0.90055388  0.82839546
   0.83530692  0.73473161  0.96607735
   0.83659724  0.90134250  0.92074851
   0.40284868  0.05350927  0.03486004
   0.40282178  0.05352422  0.13645976
   0.40284348  0.05352092  0.23832320
   0.40284785  0.05351046  0.34017563
   0.40285067  0.30350838  0.03487753
   0.40282292  0.30352333  0.13647287
   0.40284986  0.30350902  0.23833708
   0.40284949  0.30350888  0.34022136
   0.40284876  0.55350918  0.03486014
   0.40282319  0.55352254  0.13645946
   0.40284827  0.55350774  0.23832255
   0.40284874  0.55350975  0.34017543
   0.40285054  0.80350850  0.03487742
   0.40282180  0.80352351  0.13647188
   0.40284386  0.80352071  0.23833646
   0.40284767  0.80351107  0.34022164
   0.90284869  0.05350927  0.03486003
   0.90282177  0.05352422  0.13645976
   0.90284347  0.05352092  0.23832319
   0.90284784  0.05351046  0.34017562
   0.90285067  0.30350838  0.03487752
   0.90282292  0.30352332  0.13647285
   0.90284986  0.30350902  0.23833708
   0.90284948  0.30350888  0.34022137
   0.90284877  0.55350917  0.03486013
   0.90282318  0.55352254  0.13645945
   0.90284827  0.55350774  0.23832255
   0.90284875  0.55350974  0.34017544
   0.90285053  0.80350850  0.03487742
   0.90282180  0.80352350  0.13647188
   0.90284386  0.80352071  0.23833646
   0.90284767  0.80351107  0.34022165
unknown system                          
           1
    -8.911579    8.910644   -0.000021
   -17.823109    0.000048   -0.000073
     0.000181    0.000078   44.293309
   Cl   Na   O 
    32   204    32
Direct configuration=     2
   0.15285529  0.05349802  0.08470310
   0.15285958  0.05350479  0.18737350
   0.15286557  0.05351131  0.28915597
   0.15279243  0.05345508  0.38974911
   0.15287741  0.30346655  0.08474208
   0.15287060  0.30349535  0.18737281
   0.15286064  0.30352844  0.28914054
   0.15289783  0.30328159  0.38989193
   0.15286872  0.55351156  0.08472272
   0.15286212  0.55350512  0.18737781
   0.15285822  0.55350274  0.28917626
   0.15290803  0.55356528  0.38983787
   0.15286658  0.80351883  0.08473340
   0.15286808  0.80349778  0.18737021
   0.15286216  0.80349524  0.28913225
   0.15283442  0.80373325  0.38984554
   0.65287976  0.05349614  0.08471404
   0.65286082  0.05350473  0.18737575
   0.65284819  0.05351240  0.28916509
   0.65303257  0.05344779  0.38982962
   0.65291613  0.30347180  0.08473683
   0.65287252  0.30349537  0.18737143
   0.65283247  0.30352562  0.28913451
   0.65328279  0.30329530  0.38986507
   0.65283899  0.55350931  0.08471618
   0.65286083  0.55350515  0.18737571
   0.65287890  0.55350393  0.28916651
   0.65265859  0.55356499  0.38983497
   0.65282257  0.80352297  0.08473968
   0.65286611  0.80349785  0.18737162
   0.65289364  0.80349244  0.28913822
   0.65243733  0.80373980  0.38988437
   0.40287558  0.05352542  0.08550134
   0.15268298  0.17886380  0.03383049
   0.40280830  0.05350142  0.18741304
   0.15290666  0.17971038  0.13646618
   0.40285646  0.05349170  0.28922377
   0.15262324  0.17838454  0.23835853
   0.40292665  0.05359100  0.39021717
   0.15282073  0.17767361  0.34026089
   0.40269154  0.17880053  0.03392870
   0.40283284  0.30351846  0.08554093
   0.15276247  0.42872931  0.03419923
   0.40538299  0.17724767  0.13632257
   0.40285623  0.30349953  0.18739211
   0.15278493  0.42731327  0.13645537
   0.40244973  0.17867415  0.23835188
   0.40291878  0.30346274  0.28925604
   0.15292101  0.42871295  0.23836020
   0.40121905  0.17928208  0.34021603
   0.40219946  0.30396460  0.39013480
   0.15293156  0.42924870  0.34023366
   0.40197142  0.42882870  0.03405678
   0.40285073  0.55351364  0.08550062
   0.15261416  0.67825146  0.03401404
   0.40026443  0.42977064  0.13632016
   0.40280676  0.55349921  0.18741226
   0.15290643  0.67969182  0.13646264
   0.40318462  0.42837459  0.23835132
   0.40285804  0.55350048  0.28921872
   0.15262292  0.67839737  0.23835588
   0.40465131  0.42762483  0.34020753
   0.40253712  0.55344261  0.39011831
   0.15283221  0.67777325  0.34024804
   0.40314051  0.67821379  0.03381436
   0.40290111  0.80347359  0.08554178
   0.15296972  0.92836973  0.03371598
   0.40539816  0.67723163  0.13632463
   0.40285834  0.80348923  0.18739366
   0.15278808  0.92730388  0.13646431
   0.40244128  0.67868181  0.23835346
   0.40288542  0.80348621  0.28926446
   0.15291750  0.92871804  0.23836619
   0.40114742  0.67936838  0.34022464
   0.40319785  0.80331373  0.39038549
   0.15290540  0.92930245  0.34026526
   0.40301440  0.92846081  0.03377912
   0.40029539  0.92975854  0.13632600
   0.40316062  0.92838106  0.23835176
   0.40448081  0.92768845  0.34022574
   0.90283246  0.05352664  0.08549821
   0.65212297  0.17886460  0.03386179
   0.90280811  0.05350141  0.18741421
   0.65289488  0.17970603  0.13646464
   0.90287538  0.05349191  0.28922751
   0.65263021  0.17838819  0.23835782
   0.90264085  0.05356583  0.39028055
   0.65290722  0.17768998  0.34025325
   0.90271539  0.17861562  0.03373140
   0.90285082  0.30352308  0.08554340
   0.65271366  0.42860550  0.03385940
   0.90537644  0.17724971  0.13632782
   0.90285858  0.30349800  0.18739394
   0.65278312  0.42731235  0.13645993
   0.90245338  0.17867286  0.23835500
   0.90290600  0.30346259  0.28926327
   0.65292321  0.42871274  0.23836314
   0.90125166  0.17928117  0.34023406
   0.90283303  0.30372005  0.39035098
   0.65294730  0.42925062  0.34025059
   0.90284311  0.42882244  0.03397786
   0.90288221  0.55351428  0.08549617
   0.65335261  0.67829489  0.03393489
   0.90028252  0.42976816  0.13632090
   0.90280967  0.55349891  0.18741105
   0.65291881  0.67969484  0.13646308
   0.90317267  0.42837785  0.23835197
   0.90283844  0.55350036  0.28921365
   0.65261667  0.67839414  0.23835655
   0.90454506  0.42762746  0.34020927
   0.90337207  0.55338745  0.38993046
   0.65273726  0.67776596  0.34024840
   0.90348129  0.67800257  0.03410955
   0.90287152  0.80347863  0.08554253
   0.65319622  0.92826791  0.03389324
   0.90540101  0.67723067  0.13631995
   0.90285879  0.80348831  0.18739184
   0.65279054  0.92730553  0.13645897
   0.90243996  0.67868098  0.23835045
   0.90289757  0.80348688  0.28925779
   0.65291615  0.92871698  0.23836307
   0.90113086  0.67937136  0.34020788
   0.90311872  0.80308544  0.39022064
   0.65288110  0.92929956  0.34024755
   0.90251038  0.92849799  0.03380844
   0.90027368  0.92976357  0.13632451
   0.90317497  0.92837750  0.23835108
   0.90460322  0.92766761  0.34022007
   0.16946272  0.06705429  0.50200145
   0.16970046  0.23360410  0.45660741
   0.16944960  0.06708871  0.59419897
   0.16957407  0.23362257  0.54632061
   0.16947349  0.06705108  0.68804765
   0.16943547  0.23375750  0.64195405
   0.16940384  0.06699382  0.78093807
   0.16951426  0.23367612  0.73485724
   0.16958992  0.06696247  0.87661048
   0.16944608  0.23364603  0.82871934
   0.16927842  0.06755445  0.96598240
   0.16947103  0.23377180  0.92092061
   0.50231107  0.06606750  0.50213885
   0.50439467  0.23216976  0.45715218
   0.50087270  0.06686138  0.59452685
   0.50430116  0.23166191  0.54688287
   0.50305387  0.06541876  0.68773338
   0.50326803  0.23263888  0.64135110
   0.50333132  0.06599311  0.78156323
   0.50295481  0.23211929  0.73513120
   0.50422670  0.06504377  0.87601505
   0.50080889  0.23364988  0.82838933
   0.50318846  0.06582417  0.96613358
   0.50235232  0.23271635  0.92077845
   0.16946332  0.40030441  0.50193536
   0.16940667  0.56676572  0.45660122
   0.16949742  0.40033767  0.59418848
   0.16937662  0.56711375  0.54629218
   0.16957012  0.40032340  0.68803749
   0.16937991  0.56717310  0.64192254
   0.16936863  0.40039949  0.78098003
   0.16956729  0.56704272  0.73484313
   0.16943325  0.40042020  0.87661102
   0.16958424  0.56699760  0.82869579
   0.16969041  0.40040237  0.96601980
   0.16943143  0.56709735  0.92090413
   0.83658064  0.06802858  0.50216495
   0.83475419  0.23468792  0.45681855
   0.83820391  0.06710900  0.59452305
   0.83449703  0.23583796  0.54689506
   0.83585692  0.06857395  0.68778476
   0.83571757  0.23475823  0.64135833
   0.83573908  0.06803038  0.78153572
   0.83589552  0.23527122  0.73512787
   0.83469882  0.06916566  0.87602240
   0.83803062  0.23387893  0.82838904
   0.83612013  0.06788026  0.96638215
   0.83644262  0.23483034  0.92074538
   0.50224721  0.39949496  0.50212587
   0.50446298  0.56603354  0.45694681
   0.50085750  0.40019169  0.59451511
   0.50411748  0.56507500  0.54685425
   0.50296333  0.39880006  0.68773773
   0.50324001  0.56595160  0.64135687
   0.50316798  0.39935747  0.78155751
   0.50294097  0.56544315  0.73513673
   0.50430532  0.39836374  0.87601697
   0.50083438  0.56691336  0.82837235
   0.50331505  0.39979533  0.96596022
   0.50234053  0.56620096  0.92077156
   0.16934305  0.73380211  0.50199291
   0.16941148  0.90012697  0.45679957
   0.16938826  0.73375151  0.59419509
   0.16963441  0.90028043  0.54629567
   0.16953825  0.73369820  0.68804232
   0.16957969  0.90038131  0.64193747
   0.16937529  0.73381178  0.78096667
   0.16954218  0.90032566  0.73485911
   0.16968690  0.73359529  0.87660122
   0.16951548  0.90033445  0.82868965
   0.16939840  0.73402540  0.96600275
   0.16935179  0.90050996  0.92088950
   0.83684493  0.40116799  0.50211637
   0.83472411  0.56804602  0.45722379
   0.83809560  0.40048662  0.59449533
   0.83455212  0.56915438  0.54688375
   0.83587289  0.40193220  0.68777213
   0.83559792  0.56820705  0.64134149
   0.83575519  0.40142483  0.78155472
   0.83592536  0.56859882  0.73512673
   0.83475606  0.40242377  0.87599789
   0.83802900  0.56729596  0.82840221
   0.83579605  0.40057169  0.96621675
   0.83661552  0.56802821  0.92077889
   0.50230408  0.73279695  0.50212049
   0.50436692  0.89880194  0.45675310
   0.50089349  0.73349018  0.59453888
   0.50408320  0.89842081  0.54687670
   0.50296616  0.73211907  0.68775931
   0.50323431  0.89933480  0.64137412
   0.50332274  0.73269690  0.78158756
   0.50293497  0.89879232  0.73512868
   0.50424745  0.73169135  0.87599804
   0.50098234  0.90020349  0.82836346
   0.50241965  0.73354551  0.96631529
   0.50246311  0.89935898  0.92074341
   0.83654354  0.73469134  0.50214014
   0.83462882  0.90204187  0.45702079
   0.83799425  0.73393308  0.59449798
   0.83460067  0.90246017  0.54689462
   0.83587530  0.73525678  0.68778989
   0.83579237  0.90135914  0.64131937
   0.83578114  0.73478324  0.78155601
   0.83593780  0.90190584  0.73512859
   0.83472834  0.73578673  0.87600521
   0.83809877  0.90057261  0.82840235
   0.83545013  0.73497215  0.96596830
   0.83657386  0.90135708  0.92074307
   0.40320161  0.05360333  0.03461236
   0.40281965  0.05351977  0.13642799
   0.40284770  0.05352217  0.23832676
   0.40289628  0.05352412  0.34014891
   0.40228036  0.30386297  0.03477846
   0.40284173  0.30351828  0.13644675
   0.40283692  0.30352378  0.23834405
   0.40276258  0.30356598  0.34023147
   0.40268201  0.55339995  0.03470357
   0.40283407  0.55352493  0.13643215
   0.40284119  0.55351292  0.23832832
   0.40282322  0.55349610  0.34016244
   0.40357391  0.80302595  0.03456184
   0.40280412  0.80354195  0.13643624
   0.40285504  0.80351573  0.23833754
   0.40293607  0.80345691  0.34019467
   0.90229666  0.05364073  0.03449467
   0.90284291  0.05351917  0.13642334
   0.90283614  0.05352215  0.23832422
   0.90278385  0.05352625  0.34013527
   0.90257721  0.30400616  0.03461798
   0.90283223  0.30351543  0.13643929
   0.90284487  0.30352343  0.23833937
   0.90281543  0.30357541  0.34020111
   0.90324823  0.55340705  0.03479602
   0.90281757  0.55352437  0.13643707
   0.90285345  0.55351289  0.23833156
   0.90291305  0.55349786  0.34018530
   0.90293790  0.80317959  0.03473190
   0.90282042  0.80353914  0.13644371
   0.90284787  0.80351537  0.23834180
   0.90286037  0.80346628  0.34022136
unknown system                          
           1
    -8.924352    8.920613   -0.000083
   -17.848511    0.000193   -0.000291
     0.000725    0.000312   44.181202
   Cl   Na   O 
    32   204    32
Direct configuration=     3
   0.15287799  0.05346104  0.08472864
   0.15289876  0.05348295  0.18732805
   0.15292597  0.05350789  0.28910761
   0.15262586  0.05328899  0.38960323
   0.15296634  0.30333411  0.08481373
   0.15293996  0.30344507  0.18734859
   0.15289230  0.30358086  0.28913998
   0.15304681  0.30259553  0.39002714
   0.15293129  0.55351587  0.08480715
   0.15289923  0.55348726  0.18734706
   0.15288469  0.55347518  0.28918716
   0.15308841  0.55372892  0.38995825
   0.15292287  0.80354367  0.08477912
   0.15293809  0.80345368  0.18734036
   0.15290782  0.80344533  0.28910497
   0.15279482  0.80439960  0.38984145
   0.65297583  0.05345350  0.08477245
   0.65290372  0.05348267  0.18733700
   0.65285648  0.05351226  0.28914409
   0.65358612  0.05325983  0.38992550
   0.65312120  0.30335509  0.08479273
   0.65294767  0.30344515  0.18734304
   0.65277967  0.30356962  0.28911579
   0.65458628  0.30265029  0.38991969
   0.65281237  0.55350689  0.08478099
   0.65289409  0.55348737  0.18733865
   0.65296741  0.55347993  0.28914812
   0.65209094  0.55372782  0.38994669
   0.65274689  0.80356022  0.08480428
   0.65293019  0.80345397  0.18734603
   0.65303371  0.80343414  0.28912887
   0.65120684  0.80442585  0.38999690
   0.40295665  0.05357446  0.08565579
   0.15278228  0.17972414  0.03378640
   0.40268899  0.05347300  0.18738189
   0.15316566  0.17966930  0.13649417
   0.40288029  0.05343906  0.28926543
   0.15261661  0.17841045  0.23836161
   0.40315614  0.05383855  0.39037658
   0.15295464  0.17738326  0.34024245
   0.40164051  0.18006550  0.03420515
   0.40278215  0.30354899  0.08567018
   0.15188739  0.42960183  0.03526232
   0.40531072  0.17742740  0.13634087
   0.40288741  0.30344091  0.18737502
   0.15261815  0.42728435  0.13645094
   0.40230708  0.17889574  0.23836396
   0.40313012  0.30332394  0.28923996
   0.15247830  0.42888616  0.23836858
   0.40137626  0.17907098  0.34018206
   0.40025005  0.30533102  0.38957418
   0.15295928  0.42924554  0.34013401
   0.39994050  0.42932718  0.03470198
   0.40285646  0.55352860  0.08565198
   0.15250687  0.67727569  0.03452099
   0.40021786  0.42956609  0.13633370
   0.40268703  0.55346772  0.18737747
   0.15316187  0.67959595  0.13647956
   0.40311399  0.42822263  0.23835865
   0.40292540  0.55346475  0.28925151
   0.15261810  0.67845971  0.23835181
   0.40501161  0.42750176  0.34015030
   0.40159937  0.55324402  0.38997978
   0.15300175  0.67778120  0.34019155
   0.40343598  0.67771942  0.03374748
   0.40305449  0.80337059  0.08567459
   0.15271587  0.92816416  0.03332816
   0.40536858  0.67737018  0.13634912
   0.40289631  0.80342522  0.18738296
   0.15263407  0.92724579  0.13648827
   0.40227330  0.67892583  0.23837022
   0.40299276  0.80341423  0.28927569
   0.15246112  0.92891332  0.23839164
   0.40109234  0.67941179  0.34021755
   0.40424317  0.80272726  0.39057893
   0.15285353  0.92946224  0.34026144
   0.40411104  0.92785625  0.03359068
   0.40033919  0.92951822  0.13635683
   0.40302211  0.92827664  0.23837201
   0.40432725  0.92775735  0.34022326
   0.90278428  0.05357932  0.08564327
   0.65054290  0.17972742  0.03391167
   0.90268832  0.05347293  0.18738659
   0.65311855  0.17965184  0.13648801
   0.90295628  0.05343981  0.28928040
   0.65264453  0.17842503  0.23835880
   0.90201281  0.05373825  0.39063027
   0.65330049  0.17744869  0.34021181
   0.90173588  0.17932616  0.03341557
   0.90285410  0.30356748  0.08568015
   0.65169231  0.42910673  0.03390220
   0.90528446  0.17743564  0.13636194
   0.90289674  0.30343485  0.18738237
   0.65261088  0.42728071  0.13646927
   0.90232162  0.17889061  0.23837640
   0.90307919  0.30332325  0.28926888
   0.65248706  0.42888532  0.23838036
   0.90150707  0.17906719  0.34025423
   0.90278316  0.30435342  0.39043940
   0.65302224  0.42925318  0.34020162
   0.90342621  0.42930209  0.03438621
   0.90298239  0.55353116  0.08563419
   0.65545982  0.67744926  0.03420420
   0.90029021  0.42955623  0.13633675
   0.90269883  0.55346650  0.18737263
   0.65321137  0.67960797  0.13648136
   0.90306614  0.42823569  0.23836126
   0.90284703  0.55346421  0.28923120
   0.65259308  0.67844682  0.23835452
   0.90458715  0.42751209  0.34015722
   0.90493759  0.55302358  0.38922792
   0.65262206  0.67775218  0.34019296
   0.90479859  0.67687486  0.03492904
   0.90293628  0.80339074  0.08567761
   0.65362169  0.92775697  0.03403770
   0.90538010  0.67736630  0.13633041
   0.90289810  0.80342160  0.18737566
   0.65264391  0.92725248  0.13646692
   0.90226800  0.67892251  0.23835812
   0.90304148  0.80341688  0.28924894
   0.65245569  0.92890910  0.23837912
   0.90102660  0.67942348  0.34015042
   0.90392613  0.80181477  0.38991908
   0.65275633  0.92945065  0.34019038
   0.90209551  0.92800498  0.03370810
   0.90025240  0.92953830  0.13635091
   0.90307942  0.92826247  0.23836929
   0.90481713  0.92767380  0.34020052
   0.16946327  0.06715815  0.50201753
   0.16919860  0.23480705  0.45620897
   0.16949844  0.06703663  0.59422403
   0.16954671  0.23367552  0.54641042
   0.16953687  0.06701312  0.68804142
   0.16950752  0.23366715  0.64192379
   0.16938037  0.06698577  0.78096067
   0.16950828  0.23366013  0.73486365
   0.16955406  0.06704945  0.87656255
   0.16941151  0.23366854  0.82870578
   0.16938366  0.06765327  0.96548838
   0.16948276  0.23383901  0.92085461
   0.50207738  0.06606816  0.50214169
   0.50724638  0.23003324  0.45812205
   0.50086190  0.06684727  0.59452490
   0.50418897  0.23181944  0.54690168
   0.50316118  0.06540957  0.68776622
   0.50325290  0.23256615  0.64136230
   0.50329473  0.06597774  0.78155679
   0.50305469  0.23212793  0.73511616
   0.50406553  0.06516145  0.87600972
   0.50086335  0.23361448  0.82840313
   0.50136675  0.06541384  0.96629311
   0.50240727  0.23275126  0.92077885
   0.16948880  0.40037031  0.50197467
   0.16902064  0.56659200  0.45595165
   0.16954728  0.40028889  0.59421608
   0.16931774  0.56718711  0.54638973
   0.16965056  0.40028700  0.68803447
   0.16944863  0.56714951  0.64189380
   0.16934667  0.40038994  0.78098864
   0.16956558  0.56706593  0.73484416
   0.16939210  0.40050636  0.87655773
   0.16956699  0.56706878  0.82867849
   0.17040371  0.40013832  0.96558863
   0.16944427  0.56705423  0.92083775
   0.83670726  0.06804602  0.50217748
   0.83330450  0.23479187  0.45681616
   0.83818360  0.06712169  0.59451502
   0.83458721  0.23581595  0.54692625
   0.83589298  0.06849551  0.68780815
   0.83584720  0.23481096  0.64137036
   0.83584999  0.06802841  0.78152802
   0.83592151  0.23527203  0.73510040
   0.83485730  0.06902359  0.87599744
   0.83798904  0.23396854  0.82840808
   0.83868722  0.06734074  0.96738442
   0.83633815  0.23481455  0.92070681
   0.50202513  0.39969316  0.50211903
   0.50673018  0.56608362  0.45731110
   0.50085859  0.40018935  0.59450980
   0.50403538  0.56517993  0.54689072
   0.50305124  0.39881974  0.68776968
   0.50321788  0.56582658  0.64137241
   0.50315300  0.39934468  0.78155221
   0.50303230  0.56542329  0.73511654
   0.50412648  0.39852481  0.87601918
   0.50088646  0.56684929  0.82839340
   0.50286990  0.40065256  0.96558526
   0.50244964  0.56624439  0.92075086
   0.16938547  0.73367164  0.50202040
   0.16883151  0.89999190  0.45678187
   0.16943758  0.73368189  0.59422132
   0.16962005  0.90033650  0.54637612
   0.16961075  0.73363795  0.68803540
   0.16966008  0.90034822  0.64190988
   0.16937699  0.73376478  0.78098659
   0.16953690  0.90036093  0.73486624
   0.16966496  0.73364385  0.87655516
   0.16949875  0.90039676  0.82867643
   0.16980226  0.73362241  0.96555922
   0.16939724  0.90044651  0.92083842
   0.83698930  0.40099648  0.50212091
   0.83258523  0.56852132  0.45848390
   0.83807770  0.40047906  0.59448718
   0.83465830  0.56912069  0.54690209
   0.83587633  0.40184042  0.68779628
   0.83574003  0.56822323  0.64134784
   0.83586833  0.40141065  0.78154839
   0.83596188  0.56859176  0.73510759
   0.83489968  0.40225891  0.87598186
   0.83795236  0.56740465  0.82842205
   0.83720010  0.39835486  0.96652560
   0.83652204  0.56801215  0.92077448
   0.50206862  0.73300175  0.50212632
   0.50620231  0.89723621  0.45658555
   0.50090124  0.73348634  0.59454165
   0.50396401  0.89858238  0.54691007
   0.50305179  0.73213941  0.68779694
   0.50321057  0.89926612  0.64139702
   0.50326473  0.73270053  0.78157793
   0.50304302  0.89879746  0.73510643
   0.50408895  0.73183870  0.87598483
   0.50103178  0.90018922  0.82837928
   0.49921503  0.73568799  0.96699176
   0.50258800  0.89932418  0.92071880
   0.83664119  0.73474772  0.50213752
   0.83284291  0.90433183  0.45758908
   0.83795380  0.73394185  0.59448781
   0.83468266  0.90241626  0.54691909
   0.83590170  0.73517155  0.68780702