  10  10   0   0
  0.4257351E+02  0.4457379E-09  0.6303685E-09  0.2142794E-08  0.5000000E-15
  1.000000000000000E-004
  CAR 
 unknown system                          
     10.47701256    -20.11291943  301     -0.42356019      1.00000000
    -20.113  0.0000E+00  0.0000E+00
    -20.011  0.0000E+00  0.0000E+00
    -19.909  0.0000E+00  0.0000E+00
    -19.807  0.0000E+00  0.0000E+00
    -19.705  0.0000E+00  0.0000E+00
    -19.603  0.0000E+00  0.0000E+00
    -19.501  0.0000E+00  0.0000E+00
    -19.399  0.0000E+00  0.0000E+00
    -19.297  0.7259E-15  0.7401E-16
    -19.195  0.4129E-10  0.4210E-11
    -19.093  0.3121E-06  0.3183E-07
    -18.991  0.3203E-03  0.3269E-04
    -18.889  0.4747E-01  0.4873E-02
    -18.787  0.1179E+01  0.1251E+00
    -18.685  0.6364E+01  0.7740E+00
    -18.583  0.8913E+01  0.1683E+01
    -18.481  0.2928E+01  0.1981E+01
    -18.379  0.1806E+00  0.2000E+01
    -18.278  0.1746E-02  0.2000E+01
    -18.176  0.2388E-05  0.2000E+01
    -18.074  0.4397E-09  0.2000E+01
    -17.972  0.1065E-13  0.2000E+01
    -17.870  0.0000E+00  0.2000E+01
    -17.768  0.0000E+00  0.2000E+01
    -17.666  0.0000E+00  0.2000E+01
    -17.564  0.0000E+00  0.2000E+01
    -17.462  0.3448E-13  0.2000E+01
    -17.360  0.1041E-08  0.2000E+01
    -17.258  0.4303E-05  0.2000E+01
    -17.156  0.2566E-02  0.2000E+01
    -17.054  0.2362E+00  0.2024E+01
    -16.952  0.3631E+01  0.2395E+01
    -16.850  0.1007E+02  0.3421E+01
    -16.748  0.5197E+01  0.3951E+01
    -16.646  0.4736E+00  0.3999E+01
    -16.544  0.6861E-02  0.4000E+01
    -16.442  0.1621E-04  0.4000E+01
    -16.340  0.1362E-02  0.4000E+01
    -16.238  0.1560E+00  0.4016E+01
    -16.136  0.2919E+01  0.4314E+01
    -16.034  0.9745E+01  0.5307E+01
    -15.932  0.6095E+01  0.5929E+01
    -15.830  0.6862E+00  0.5999E+01
    -15.728  0.1256E-01  0.6000E+01
    -15.626  0.3398E-04  0.6000E+01
    -15.524  0.1274E-07  0.6000E+01
    -15.422  0.6373E-12  0.6000E+01
    -15.320  0.0000E+00  0.6000E+01
    -15.219  0.0000E+00  0.6000E+01
    -15.117  0.0000E+00  0.6000E+01
    -15.015  0.0000E+00  0.6000E+01
    -14.913  0.0000E+00  0.6000E+01
    -14.811  0.0000E+00  0.6000E+01
    -14.709  0.0000E+00  0.6000E+01
    -14.607  0.0000E+00  0.6000E+01
    -14.505  0.0000E+00  0.6000E+01
    -14.403  0.0000E+00  0.6000E+01
    -14.301  0.0000E+00  0.6000E+01
    -14.199  0.0000E+00  0.6000E+01
    -14.097  0.0000E+00  0.6000E+01
    -13.995  0.0000E+00  0.6000E+01
    -13.893  0.0000E+00  0.6000E+01
    -13.791  0.0000E+00  0.6000E+01
    -13.689  0.0000E+00  0.6000E+01
    -13.587  0.0000E+00  0.6000E+01
    -13.485  0.0000E+00  0.6000E+01
    -13.383  0.0000E+00  0.6000E+01
    -13.281  0.0000E+00  0.6000E+01
    -13.179  0.0000E+00  0.6000E+01
    -13.077  0.0000E+00  0.6000E+01
    -12.975  0.0000E+00  0.6000E+01
    -12.873  0.0000E+00  0.6000E+01
    -12.771  0.0000E+00  0.6000E+01
    -12.669  0.0000E+00  0.6000E+01
    -12.567  0.0000E+00  0.6000E+01
    -12.465  0.0000E+00  0.6000E+01
    -12.363  0.0000E+00  0.6000E+01
    -12.262  0.0000E+00  0.6000E+01
    -12.160  0.0000E+00  0.6000E+01
    -12.058  0.0000E+00  0.6000E+01
    -11.956  0.0000E+00  0.6000E+01
    -11.854  0.0000E+00  0.6000E+01
    -11.752  0.0000E+00  0.6000E+01
    -11.650  0.0000E+00  0.6000E+01
    -11.548  0.0000E+00  0.6000E+01
    -11.446  0.0000E+00  0.6000E+01
    -11.344  0.0000E+00  0.6000E+01
    -11.242  0.0000E+00  0.6000E+01
    -11.140  0.0000E+00  0.6000E+01
    -11.038  0.0000E+00  0.6000E+01
    -10.936  0.0000E+00  0.6000E+01
    -10.834  0.0000E+00  0.6000E+01
    -10.732  0.0000E+00  0.6000E+01
    -10.630  0.0000E+00  0.6000E+01
    -10.528  0.0000E+00  0.6000E+01
    -10.426  0.0000E+00  0.6000E+01
    -10.324  0.0000E+00  0.6000E+01
    -10.222  0.0000E+00  0.6000E+01
    -10.120  0.0000E+00  0.6000E+01
    -10.018  0.0000E+00  0.6000E+01
     -9.916  0.0000E+00  0.6000E+01
     -9.814  0.0000E+00  0.6000E+01
     -9.712  0.0000E+00  0.6000E+01
     -9.610  0.0000E+00  0.6000E+01
     -9.508  0.0000E+00  0.6000E+01
     -9.406  0.0000E+00  0.6000E+01
     -9.304  0.0000E+00  0.6000E+01
     -9.203  0.0000E+00  0.6000E+01
     -9.101  0.0000E+00  0.6000E+01
     -8.999  0.0000E+00  0.6000E+01
     -8.897  0.0000E+00  0.6000E+01
     -8.795  0.0000E+00  0.6000E+01
     -8.693  0.0000E+00  0.6000E+01
     -8.591  0.0000E+00  0.6000E+01
     -8.489  0.0000E+00  0.6000E+01
     -8.387  0.0000E+00  0.6000E+01
     -8.285  0.0000E+00  0.6000E+01
     -8.183  0.3022E-12  0.6000E+01
     -8.081  0.6012E-08  0.6000E+01
     -7.979  0.1639E-04  0.6000E+01
     -7.877  0.6465E-02  0.6001E+01
     -7.775  0.4043E+00  0.6042E+01
     -7.673  0.4514E+01  0.6502E+01
     -7.571  0.9929E+01  0.7515E+01
     -7.469  0.4401E+01  0.7963E+01
     -7.367  0.8395E+00  0.8049E+01
     -7.265  0.4256E+01  0.8483E+01
     -7.163  0.6527E+01  0.9149E+01
     -7.061  0.2250E+01  0.9378E+01
     -6.959  0.3092E+01  0.9693E+01
     -6.857  0.6733E+01  0.1038E+02
     -6.755  0.6485E+01  0.1104E+02
     -6.653  0.3458E+01  0.1139E+02
     -6.551  0.3628E+01  0.1176E+02
     -6.449  0.2092E+01  0.1198E+02
     -6.347  0.2225E+00  0.1200E+02
     -6.245  0.3663E-02  0.1200E+02
     -6.144  0.8575E-05  0.1200E+02
     -6.042  0.2717E-08  0.1200E+02
     -5.940  0.1130E-12  0.1200E+02
     -5.838  0.0000E+00  0.1200E+02
     -5.736  0.2811E-11  0.1200E+02
     -5.634  0.3013E-07  0.1200E+02
     -5.532  0.4360E-04  0.1200E+02
     -5.430  0.9249E-02  0.1200E+02
     -5.328  0.3460E+00  0.1204E+02
     -5.226  0.2939E+01  0.1234E+02
     -5.124  0.6728E+01  0.1302E+02
     -5.022  0.5734E+01  0.1361E+02
     -4.920  0.4656E+01  0.1408E+02
     -4.818  0.4272E+01  0.1452E+02
     -4.716  0.5055E+01  0.1503E+02
     -4.614  0.2805E+01  0.1532E+02
     -4.512  0.1790E+01  0.1550E+02
     -4.410  0.3377E+01  0.1585E+02
     -4.308  0.1529E+01  0.1600E+02
     -4.206  0.1619E+01  0.1617E+02
     -4.104  0.3390E+01  0.1651E+02
     -4.002  0.1541E+01  0.1667E+02
     -3.900  0.1543E+01  0.1683E+02
     -3.798  0.4209E+01  0.1726E+02
     -3.696  0.5277E+01  0.1779E+02
     -3.594  0.1900E+01  0.1799E+02
     -3.492  0.1248E+00  0.1800E+02
     -3.390  0.1247E-02  0.1800E+02
     -3.288  0.9361E-05  0.1800E+02
     -3.186  0.3705E-02  0.1800E+02
     -3.085  0.2602E+00  0.1803E+02
     -2.983  0.3015E+01  0.1833E+02
     -2.881  0.7585E+01  0.1911E+02
     -2.779  0.6549E+01  0.1978E+02
     -2.677  0.3138E+01  0.2010E+02
     -2.575  0.6031E+01  0.2071E+02
     -2.473  0.1022E+02  0.2175E+02
     -2.371  0.1084E+02  0.2286E+02
     -2.269  0.8559E+01  0.2373E+02
     -2.167  0.2838E+01  0.2402E+02
     -2.065  0.4061E+01  0.2443E+02
     -1.963  0.8643E+01  0.2532E+02
     -1.861  0.5463E+01  0.2587E+02
     -1.759  0.1187E+01  0.2599E+02
     -1.657  0.6108E-01  0.2600E+02
     -1.555  0.5350E-03  0.2600E+02
     -1.453  0.6985E-06  0.2600E+02
     -1.351  0.1278E-09  0.2600E+02
     -1.249  0.1246E-13  0.2600E+02
     -1.147  0.4191E-09  0.2600E+02
     -1.045  0.2395E-05  0.2600E+02
     -0.943  0.1878E-02  0.2600E+02
     -0.841  0.2105E+00  0.2602E+02
     -0.739  0.3666E+01  0.2640E+02
     -0.637  0.1249E+02  0.2767E+02
     -0.535  0.1877E+02  0.2958E+02
     -0.433  0.2202E+02  0.3183E+02
     -0.331  0.1343E+02  0.3320E+02
     -0.229  0.1010E+02  0.3423E+02
     -0.127  0.6131E+01  0.3485E+02
     -0.026  0.4144E+01  0.3528E+02
      0.076  0.3818E+01  0.3566E+02
      0.178  0.1239E+01  0.3579E+02
      0.280  0.1031E+01  0.3590E+02
      0.382  0.8788E+00  0.3599E+02
      0.484  0.1524E+00  0.3600E+02
      0.586  0.4898E+00  0.3605E+02
      0.688  0.2584E+01  0.3631E+02
      0.790  0.4988E+01  0.3682E+02
      0.892  0.4204E+01  0.3725E+02
      0.994  0.1508E+01  0.3741E+02
      1.096  0.3126E+01  0.3772E+02
      1.198  0.2380E+01  0.3797E+02
      1.300  0.3152E+00  0.3800E+02
      1.402  0.2278E-01  0.3800E+02
      1.504  0.6459E+00  0.3807E+02
      1.606  0.5047E+01  0.3858E+02
      1.708  0.8649E+01  0.3946E+02
      1.810  0.3973E+01  0.3987E+02
      1.912  0.2322E+01  0.4011E+02
      2.014  0.4861E+01  0.4060E+02
      2.116  0.3978E+01  0.4101E+02
      2.218  0.1517E+01  0.4116E+02
      2.320  0.3998E+01  0.4157E+02
      2.422  0.6706E+01  0.4225E+02
      2.524  0.3433E+01  0.4260E+02
      2.626  0.7725E+00  0.4268E+02
      2.728  0.1696E+01  0.4286E+02
      2.830  0.4606E+01  0.4332E+02
      2.931  0.6579E+01  0.4400E+02
      3.033  0.4387E+01  0.4444E+02
      3.135  0.3716E+01  0.4482E+02
      3.237  0.6110E+01  0.4544E+02
      3.339  0.4514E+01  0.4591E+02
      3.441  0.1181E+01  0.4603E+02
      3.543  0.1824E+01  0.4621E+02
      3.645  0.1921E+01  0.4641E+02
      3.747  0.3539E+00  0.4644E+02
      3.849  0.1031E-01  0.4644E+02
      3.951  0.4345E-04  0.4644E+02
      4.053  0.2499E-07  0.4644E+02
      4.155  0.1898E-11  0.4644E+02
      4.257  0.0000E+00  0.4644E+02
      4.359  0.0000E+00  0.4644E+02
      4.461  0.0000E+00  0.4644E+02
      4.563  0.0000E+00  0.4644E+02
      4.665  0.0000E+00  0.4644E+02
      4.767  0.0000E+00  0.4644E+02
      4.869  0.0000E+00  0.4644E+02
      4.971  0.0000E+00  0.4644E+02
      5.073  0.0000E+00  0.4644E+02
      5.175  0.0000E+00  0.4644E+02
      5.277  0.0000E+00  0.4644E+02
      5.379  0.0000E+00  0.4644E+02
      5.481  0.0000E+00  0.4644E+02
      5.583  0.0000E+00  0.4644E+02
      5.685  0.0000E+00  0.4644E+02
      5.787  0.0000E+00  0.4644E+02
      5.889  0.0000E+00  0.4644E+02
      5.990  0.0000E+00  0.4644E+02
      6.092  0.0000E+00  0.4644E+02
      6.194  0.2521E-12  0.4644E+02
      6.296  0.5557E-08  0.4644E+02
      6.398  0.1611E-04  0.4644E+02
      6.500  0.6365E-02  0.4645E+02
      6.602  0.3663E+00  0.4648E+02
      6.704  0.3474E+01  0.4684E+02
      6.806  0.6403E+01  0.4749E+02
      6.908  0.2593E+01  0.4775E+02
      7.010  0.2287E+00  0.4778E+02
      7.112  0.3756E-02  0.4778E+02
      7.214  0.9605E-05  0.4778E+02
      7.316  0.3431E-08  0.4778E+02
      7.418  0.1626E-12  0.4778E+02
      7.520  0.0000E+00  0.4778E+02
      7.622  0.0000E+00  0.4778E+02
      7.724  0.0000E+00  0.4778E+02
      7.826  0.0000E+00  0.4778E+02
      7.928  0.0000E+00  0.4778E+02
      8.030  0.0000E+00  0.4778E+02
      8.132  0.0000E+00  0.4778E+02
      8.234  0.0000E+00  0.4778E+02
      8.336  0.0000E+00  0.4778E+02
      8.438  0.0000E+00  0.4778E+02
      8.540  0.1137E-13  0.4778E+02
      8.642  0.3405E-09  0.4778E+02
      8.744  0.1342E-05  0.4778E+02
      8.846  0.7107E-03  0.4778E+02
      8.948  0.5296E-01  0.4778E+02
      9.049  0.6002E+00  0.4784E+02
      9.151  0.1135E+01  0.4796E+02
      9.253  0.3710E+00  0.4800E+02
      9.355  0.1977E-01  0.4800E+02
      9.457  0.1564E-03  0.4800E+02
      9.559  0.1715E-06  0.4800E+02
      9.661  0.2504E-10  0.4800E+02
      9.763  0.4839E-15  0.4800E+02
      9.865  0.0000E+00  0.4800E+02
      9.967  0.0000E+00  0.4800E+02
     10.069  0.0000E+00  0.4800E+02
     10.171  0.0000E+00  0.4800E+02
     10.273  0.0000E+00  0.4800E+02
     10.375  0.0000E+00  0.4800E+02
     10.477  0.0000E+00  0.4800E+02
