   10   10    1    1
  0.4257351E+02  0.4457378E-09  0.6303685E-09  0.2142794E-08  0.5000000E-15
  1.000000000000000E-004
  CAR 
 unknown system                          
     32      4     24
 
  0.0000000E+00  0.0000000E+00  0.0000000E+00  0.1111111E+00
    1      -18.722468   1.000000
    2      -16.897217   1.000000
    3      -16.088804   1.000000
    4       -7.662354   1.000000
    5       -6.877137   1.000000
    6       -6.582842   1.000000
    7       -5.240731   1.000000
    8       -4.438589   1.000000
    9       -4.134711   1.000000
   10       -2.817917   1.000000
   11       -2.579227   1.000000
   12       -2.460143   1.000000
   13       -1.910073   1.000000
   14       -0.671850   0.999777
   15       -0.559910   0.973090
   16       -0.495959   0.847053
   17       -0.478847   0.782855
   18        0.274415   0.000000
   19        1.069214   0.000000
   20        1.813159   0.000000
   21        2.084486   0.000000
   22        2.465275   0.000000
   23        2.857697   0.000000
   24        9.086561   0.000000
 
  0.3333333E+00  0.0000000E+00  0.0000000E+00  0.2222222E+00
    1      -18.642996   1.000000
    2      -16.876603   1.000000
    3      -16.046602   1.000000
    4       -7.620821   1.000000
    5       -7.251310   1.000000
    6       -6.754687   1.000000
    7       -5.087904   1.000000
    8       -4.895850   1.000000
    9       -3.868563   1.000000
   10       -2.887113   1.000000
   11       -2.605821   1.000000
   12       -2.311340   1.000000
   13       -1.937449   1.000000
   14       -0.690924   0.999922
   15       -0.521650   0.917309
   16       -0.473341   0.759284
   17       -0.325101   0.081897
   18        0.020696   0.000000
   19        0.671874   0.000000
   20        1.596063   0.000000
   21        2.309795   0.000000
   22        2.392086   0.000000
   23        3.031117   0.000000
   24        6.787167   0.000000
 
  0.0000000E+00  0.3333333E+00  0.0000000E+00  0.2222222E+00
    1      -18.710939   1.000000
    2      -16.917925   1.000000
    3      -16.084455   1.000000
    4       -7.649284   1.000000
    5       -6.975116   1.000000
    6       -6.575668   1.000000
    7       -4.982340   1.000000
    8       -4.475607   1.000000
    9       -4.168276   1.000000
   10       -2.817333   1.000000
   11       -2.547485   1.000000
   12       -2.524751   1.000000
   13       -2.032554   1.000000
   14       -0.669589   0.999749
   15       -0.565256   0.977458
   16       -0.482093   0.796104
   17       -0.450177   0.646699
   18       -0.047254   0.000000
   19        1.086126   0.000000
   20        1.635405   0.000000
   21        2.354135   0.000000
   22        2.748900   0.000000
   23        3.272710   0.000000
   24        3.547582   0.000000
 
  0.3333333E+00  0.3333333E+00  0.0000000E+00  0.4444444E+00
    1      -18.634991   1.000000
    2      -16.881605   1.000000
    3      -16.054124   1.000000
    4       -7.601380   1.000000
    5       -7.234466   1.000000
    6       -6.859369   1.000000
    7       -5.170986   1.000000
    8       -4.745910   1.000000
    9       -3.748879   1.000000
   10       -2.950372   1.000000
   11       -2.435264   1.000000
   12       -2.340221   1.000000
   13       -2.028874   1.000000
   14       -0.676950   0.999830
   15       -0.546217   0.958597
   16       -0.469527   0.742176
   17       -0.312354   0.057895
   18       -0.215076   0.001597
   19        0.799111   0.000000
   20        1.663561   0.000000
   21        1.988911   0.000000
   22        2.885005   0.000000
   23        3.195796   0.000000
   24        6.725656   0.000000
