unknown system                          
           1
    -3.151843   -3.151843    0.000000
     4.457378   -4.457378    0.000000
    10.713971  -10.713971   15.151843
   Na   O    Cl
     6     2     2
Direct configuration=     1
   0.50000017  0.49999983  0.39599143
   0.00000010  0.49999983  0.50000000
   0.50000017  0.99999990  0.39599143
   0.50000017  0.49999983  0.50000000
   0.00000010  0.49999983  0.60400857
   0.50000017  0.99999990  0.50000000
   0.50000017  0.49999983  0.50000000
   0.50000017  0.49999983  0.60400857
   0.00000010  0.99999990  0.49999997
   0.00000010  0.99999990  0.60400854
