 108 108   0   0
  0.5144863E+02  0.1258636E-08  0.1779980E-08  0.3507499E-08  0.5000000E-15
  1.000000000000000E-004
  CAR 
 unknown system                          
      2.64334136     -4.52746496  301     -0.35293507      1.00000000
     -4.527  0.0000E+00  0.0000E+00
     -4.504  0.0000E+00  0.0000E+00
     -4.480  0.0000E+00  0.0000E+00
     -4.456  0.0000E+00  0.0000E+00
     -4.432  0.0000E+00  0.0000E+00
     -4.408  0.0000E+00  0.0000E+00
     -4.384  0.0000E+00  0.0000E+00
     -4.360  0.0000E+00  0.0000E+00
     -4.336  0.0000E+00  0.0000E+00
     -4.312  0.0000E+00  0.0000E+00
     -4.288  0.0000E+00  0.0000E+00
     -4.265  0.0000E+00  0.0000E+00
     -4.241  0.0000E+00  0.0000E+00
     -4.217  0.0000E+00  0.0000E+00
     -4.193  0.0000E+00  0.0000E+00
     -4.169  0.0000E+00  0.0000E+00
     -4.145  0.0000E+00  0.0000E+00
     -4.121  0.0000E+00  0.0000E+00
     -4.097  0.2032E-16  0.4857E-18
     -4.073  0.2845E-15  0.7286E-17
     -4.049  0.3788E-14  0.9784E-16
     -4.026  0.4496E-13  0.1173E-14
     -4.002  0.4763E-12  0.1256E-13
     -3.978  0.4504E-11  0.1202E-12
     -3.954  0.3803E-10  0.1029E-11
     -3.930  0.2867E-09  0.7882E-11
     -3.906  0.1929E-08  0.5400E-10
     -3.882  0.1159E-07  0.3311E-09
     -3.858  0.6221E-07  0.1818E-08
     -3.834  0.2980E-06  0.8941E-08
     -3.810  0.1275E-05  0.3941E-07
     -3.786  0.4868E-05  0.1558E-06
     -3.763  0.1660E-04  0.5526E-06
     -3.739  0.5056E-04  0.1761E-05
     -3.715  0.1375E-03  0.5048E-05
     -3.691  0.3339E-03  0.1303E-04
     -3.667  0.7243E-03  0.3034E-04
     -3.643  0.1404E-02  0.6390E-04
     -3.619  0.2433E-02  0.1220E-03
     -3.595  0.3773E-02  0.2122E-03
     -3.571  0.5252E-02  0.3378E-03
     -3.547  0.6594E-02  0.4954E-03
     -3.524  0.7536E-02  0.6755E-03
     -3.500  0.7977E-02  0.8662E-03
     -3.476  0.8034E-02  0.1058E-02
     -3.452  0.7960E-02  0.1248E-02
     -3.428  0.7959E-02  0.1439E-02
     -3.404  0.8034E-02  0.1631E-02
     -3.380  0.7984E-02  0.1822E-02
     -3.356  0.7561E-02  0.2002E-02
     -3.332  0.6657E-02  0.2161E-02
     -3.308  0.5403E-02  0.2291E-02
     -3.285  0.4127E-02  0.2389E-02
     -3.261  0.3226E-02  0.2466E-02
     -3.237  0.3070E-02  0.2540E-02
     -3.213  0.3957E-02  0.2634E-02
     -3.189  0.6111E-02  0.2780E-02
     -3.165  0.9649E-02  0.3011E-02
     -3.141  0.1449E-01  0.3357E-02
     -3.117  0.2024E-01  0.3841E-02
     -3.093  0.2611E-01  0.4465E-02
     -3.069  0.3106E-01  0.5208E-02
     -3.045  0.3420E-01  0.6025E-02
     -3.022  0.3520E-01  0.6866E-02
     -2.998  0.3459E-01  0.7693E-02
     -2.974  0.3343E-01  0.8492E-02
     -2.950  0.3272E-01  0.9274E-02
     -2.926  0.3271E-01  0.1006E-01
     -2.902  0.3276E-01  0.1084E-01
     -2.878  0.3189E-01  0.1160E-01
     -2.854  0.2950E-01  0.1231E-01
     -2.830  0.2584E-01  0.1292E-01
     -2.806  0.2192E-01  0.1345E-01
     -2.783  0.1897E-01  0.1390E-01
     -2.759  0.1795E-01  0.1433E-01
     -2.735  0.1933E-01  0.1479E-01
     -2.711  0.2313E-01  0.1535E-01
     -2.687  0.2891E-01  0.1604E-01
     -2.663  0.3582E-01  0.1689E-01
     -2.639  0.4263E-01  0.1791E-01
     -2.615  0.4793E-01  0.1906E-01
     -2.591  0.5060E-01  0.2027E-01
     -2.567  0.5016E-01  0.2147E-01
     -2.544  0.4707E-01  0.2259E-01
     -2.520  0.4261E-01  0.2361E-01
     -2.496  0.3838E-01  0.2453E-01
     -2.472  0.3564E-01  0.2538E-01
     -2.448  0.3474E-01  0.2621E-01
     -2.424  0.3516E-01  0.2705E-01
     -2.400  0.3602E-01  0.2791E-01
     -2.376  0.3683E-01  0.2879E-01
     -2.352  0.3773E-01  0.2969E-01
     -2.328  0.3922E-01  0.3063E-01
     -2.305  0.4152E-01  0.3162E-01
     -2.281  0.4421E-01  0.3268E-01
     -2.257  0.4646E-01  0.3379E-01
     -2.233  0.4752E-01  0.3492E-01
     -2.209  0.4708E-01  0.3605E-01
     -2.185  0.4515E-01  0.3713E-01
     -2.161  0.4175E-01  0.3813E-01
     -2.137  0.3688E-01  0.3901E-01
     -2.113  0.3068E-01  0.3974E-01
     -2.089  0.2368E-01  0.4031E-01
     -2.065  0.1676E-01  0.4071E-01
     -2.042  0.1082E-01  0.4097E-01
     -2.018  0.6469E-02  0.4112E-01
     -1.994  0.3952E-02  0.4122E-01
     -1.970  0.3339E-02  0.4130E-01
     -1.946  0.4800E-02  0.4141E-01
     -1.922  0.8732E-02  0.4162E-01
     -1.898  0.1558E-01  0.4199E-01
     -1.874  0.2535E-01  0.4260E-01
     -1.850  0.3710E-01  0.4348E-01
     -1.826  0.4878E-01  0.4465E-01
     -1.803  0.5772E-01  0.4603E-01
     -1.779  0.6170E-01  0.4751E-01
     -1.755  0.6010E-01  0.4894E-01
     -1.731  0.5422E-01  0.5024E-01
     -1.707  0.4668E-01  0.5135E-01
     -1.683  0.4017E-01  0.5231E-01
     -1.659  0.3618E-01  0.5318E-01
     -1.635  0.3467E-01  0.5401E-01
     -1.611  0.3452E-01  0.5483E-01
     -1.587  0.3447E-01  0.5566E-01
     -1.564  0.3402E-01  0.5647E-01
     -1.540  0.3348E-01  0.5727E-01
     -1.516  0.3349E-01  0.5807E-01
     -1.492  0.3435E-01  0.5889E-01
     -1.468  0.3579E-01  0.5975E-01
     -1.444  0.3734E-01  0.6064E-01
     -1.420  0.3889E-01  0.6157E-01
     -1.396  0.4095E-01  0.6255E-01
     -1.372  0.4426E-01  0.6361E-01
     -1.348  0.4931E-01  0.6478E-01
     -1.325  0.5594E-01  0.6612E-01
     -1.301  0.6352E-01  0.6764E-01
     -1.277  0.7133E-01  0.6934E-01
     -1.253  0.7884E-01  0.7123E-01
     -1.229  0.8571E-01  0.7328E-01
     -1.205  0.9157E-01  0.7547E-01
     -1.181  0.9571E-01  0.7775E-01
     -1.157  0.9722E-01  0.8008E-01
     -1.133  0.9544E-01  0.8236E-01
     -1.109  0.9064E-01  0.8453E-01
     -1.085  0.8427E-01  0.8654E-01
     -1.062  0.7836E-01  0.8841E-01
     -1.038  0.7431E-01  0.9019E-01
     -1.014  0.7205E-01  0.9191E-01
     -0.990  0.7020E-01  0.9359E-01
     -0.966  0.6737E-01  0.9520E-01
     -0.942  0.6341E-01  0.9672E-01
     -0.918  0.5979E-01  0.9814E-01
     -0.894  0.5872E-01  0.9955E-01
     -0.870  0.6182E-01  0.1010E+00
     -0.846  0.6922E-01  0.1027E+00
     -0.823  0.7940E-01  0.1046E+00
     -0.799  0.8985E-01  0.1067E+00
     -0.775  0.9786E-01  0.1091E+00
     -0.751  0.1013E+00  0.1115E+00
     -0.727  0.9931E-01  0.1139E+00
     -0.703  0.9216E-01  0.1161E+00
     -0.679  0.8124E-01  0.1180E+00
     -0.655  0.6830E-01  0.1196E+00
     -0.631  0.5494E-01  0.1210E+00
     -0.607  0.4240E-01  0.1220E+00
     -0.584  0.3182E-01  0.1227E+00
     -0.560  0.2434E-01  0.1233E+00
     -0.536  0.2122E-01  0.1238E+00
     -0.512  0.2352E-01  0.1244E+00
     -0.488  0.3170E-01  0.1251E+00
     -0.464  0.4504E-01  0.1262E+00
     -0.440  0.6125E-01  0.1277E+00
     -0.416  0.7657E-01  0.1295E+00
     -0.392  0.8677E-01  0.1316E+00
     -0.368  0.8878E-01  0.1337E+00
     -0.344  0.8213E-01  0.1357E+00
     -0.321  0.6931E-01  0.1373E+00
     -0.297  0.5460E-01  0.1386E+00
     -0.273  0.4216E-01  0.1396E+00
     -0.249  0.3434E-01  0.1405E+00
     -0.225  0.3108E-01  0.1412E+00
     -0.201  0.3057E-01  0.1419E+00
     -0.177  0.3051E-01  0.1427E+00
     -0.153  0.2940E-01  0.1434E+00
     -0.129  0.2725E-01  0.1440E+00
     -0.105  0.2549E-01  0.1446E+00
     -0.082  0.2621E-01  0.1452E+00
     -0.058  0.3121E-01  0.1460E+00
     -0.034  0.4112E-01  0.1470E+00
     -0.010  0.5498E-01  0.1483E+00
      0.014  0.7041E-01  0.1500E+00
      0.038  0.8420E-01  0.1520E+00
      0.062  0.9342E-01  0.1542E+00
      0.086  0.9638E-01  0.1565E+00
      0.110  0.9318E-01  0.1587E+00
      0.134  0.8555E-01  0.1608E+00
      0.157  0.7602E-01  0.1626E+00
      0.181  0.6692E-01  0.1642E+00
      0.205  0.5953E-01  0.1656E+00
      0.229  0.5399E-01  0.1669E+00
      0.253  0.4968E-01  0.1681E+00
      0.277  0.4610E-01  0.1692E+00
      0.301  0.4342E-01  0.1703E+00
      0.325  0.4247E-01  0.1713E+00
      0.349  0.4410E-01  0.1723E+00
      0.373  0.4851E-01  0.1735E+00
      0.396  0.5498E-01  0.1748E+00
      0.420  0.6228E-01  0.1763E+00
      0.444  0.6938E-01  0.1779E+00
      0.468  0.7603E-01  0.1798E+00
      0.492  0.8276E-01  0.1817E+00
      0.516  0.9037E-01  0.1839E+00
      0.540  0.9914E-01  0.1863E+00
      0.564  0.1084E+00  0.1889E+00
      0.588  0.1165E+00  0.1916E+00
      0.612  0.1217E+00  0.1946E+00
      0.636  0.1223E+00  0.1975E+00
      0.659  0.1178E+00  0.2003E+00
      0.683  0.1086E+00  0.2029E+00
      0.707  0.9581E-01  0.2052E+00
      0.731  0.8148E-01  0.2071E+00
      0.755  0.6796E-01  0.2088E+00
      0.779  0.5769E-01  0.2101E+00
      0.803  0.5266E-01  0.2114E+00
      0.827  0.5371E-01  0.2127E+00
      0.851  0.6005E-01  0.2141E+00
      0.875  0.6926E-01  0.2158E+00
      0.898  0.7809E-01  0.2176E+00
      0.922  0.8361E-01  0.2196E+00
      0.946  0.8427E-01  0.2216E+00
      0.970  0.8043E-01  0.2236E+00
      0.994  0.7393E-01  0.2253E+00
      1.018  0.6710E-01  0.2269E+00
      1.042  0.6175E-01  0.2284E+00
      1.066  0.5873E-01  0.2298E+00
      1.090  0.5818E-01  0.2312E+00
      1.114  0.6033E-01  0.2326E+00
      1.137  0.6590E-01  0.2342E+00
      1.161  0.7583E-01  0.2360E+00
      1.185  0.9035E-01  0.2382E+00
      1.209  0.1081E+00  0.2408E+00
      1.233  0.1262E+00  0.2438E+00
      1.257  0.1412E+00  0.2472E+00
      1.281  0.1505E+00  0.2508E+00
      1.305  0.1532E+00  0.2544E+00
      1.329  0.1498E+00  0.2580E+00
      1.353  0.1417E+00  0.2614E+00
      1.376  0.1304E+00  0.2645E+00
      1.400  0.1171E+00  0.2673E+00
      1.424  0.1026E+00  0.2698E+00
      1.448  0.8759E-01  0.2719E+00
      1.472  0.7239E-01  0.2736E+00
      1.496  0.5754E-01  0.2750E+00
      1.520  0.4393E-01  0.2760E+00
      1.544  0.3264E-01  0.2768E+00
      1.568  0.2453E-01  0.2774E+00
      1.592  0.1968E-01  0.2779E+00
      1.616  0.1733E-01  0.2783E+00
      1.639  0.1617E-01  0.2787E+00
      1.663  0.1499E-01  0.2790E+00
      1.687  0.1308E-01  0.2793E+00
      1.711  0.1044E-01  0.2796E+00
      1.735  0.7515E-02  0.2798E+00
      1.759  0.4853E-02  0.2799E+00
      1.783  0.2804E-02  0.2799E+00
      1.807  0.1447E-02  0.2800E+00
      1.831  0.6674E-03  0.2800E+00
      1.855  0.2748E-03  0.2800E+00
      1.878  0.1011E-03  0.2800E+00
      1.902  0.3319E-04  0.2800E+00
      1.926  0.9732E-05  0.2800E+00
      1.950  0.2548E-05  0.2800E+00
      1.974  0.5957E-06  0.2800E+00
      1.998  0.1243E-06  0.2800E+00
      2.022  0.2317E-07  0.2800E+00
      2.046  0.3856E-08  0.2800E+00
      2.070  0.5730E-09  0.2800E+00
      2.094  0.7600E-10  0.2800E+00
      2.117  0.9001E-11  0.2800E+00
      2.141  0.9518E-12  0.2800E+00
      2.165  0.8985E-13  0.2800E+00
      2.189  0.7577E-14  0.2800E+00
      2.213  0.5574E-15  0.2800E+00
      2.237  0.4645E-16  0.2800E+00
      2.261  0.0000E+00  0.2800E+00
      2.285  0.0000E+00  0.2800E+00
      2.309  0.0000E+00  0.2800E+00
      2.333  0.0000E+00  0.2800E+00
      2.357  0.0000E+00  0.2800E+00
      2.380  0.0000E+00  0.2800E+00
      2.404  0.0000E+00  0.2800E+00
      2.428  0.0000E+00  0.2800E+00
      2.452  0.0000E+00  0.2800E+00
      2.476  0.0000E+00  0.2800E+00
      2.500  0.0000E+00  0.2800E+00
      2.524  0.0000E+00  0.2800E+00
      2.548  0.0000E+00  0.2800E+00
      2.572  0.0000E+00  0.2800E+00
      2.596  0.0000E+00  0.2800E+00
      2.619  0.0000E+00  0.2800E+00
      2.643  0.0000E+00  0.2800E+00
