  108  108  800    1
  0.5144863E+02  0.1258636E-08  0.1779980E-08  0.3507499E-08  0.5000000E-15
  1.000000000000000E-004
  CAR 
 unknown system                          
    108      2    112
 
  0.0000000E+00  0.0000000E+00  0.0000000E+00  0.5000000E+00
    1       -3.527465   1.000000
    2       -3.375841   1.000000
    3       -3.116557   1.000000
    4       -2.745031   1.000000
    5       -2.560082   1.000000
    6       -2.559973   1.000000
    7       -2.559682   1.000000
    8       -2.559477   1.000000
    9       -2.411142   1.000000
   10       -2.411025   1.000000
   11       -2.409092   1.000000
   12       -2.408873   1.000000
   13       -2.280041   1.000000
   14       -2.155063   1.000000
   15       -2.154893   1.000000
   16       -2.152910   1.000000
   17       -2.152797   1.000000
   18       -1.788038   1.000000
   19       -1.787950   1.000000
   20       -1.786521   1.000000
   21       -1.786305   1.000000
   22       -1.732126   1.000000
   23       -1.606684   1.000000
   24       -1.606390   1.000000
   25       -1.606328   1.000000
   26       -1.605979   1.000000
   27       -1.459160   1.000000
   28       -1.458797   1.000000
   29       -1.458755   1.000000
   30       -1.458280   1.000000
   31       -1.328888   1.000000
   32       -1.328821   1.000000
   33       -1.328698   1.000000
   34       -1.328446   1.000000
   35       -1.208013   1.000000
   36       -1.206342   1.000000
   37       -1.206226   1.000000
   38       -1.204599   1.000000
   39       -1.114892   1.000000
   40       -0.845114   1.000000
   41       -0.844915   1.000000
   42       -0.844769   1.000000
   43       -0.844623   1.000000
   44       -0.789949   1.000000
   45       -0.789749   1.000000
   46       -0.787677   1.000000
   47       -0.787368   1.000000
   48       -0.448779   0.912361
   49       -0.394133   0.719925
   50       -0.393536   0.717080
   51       -0.393425   0.716546
   52       -0.392803   0.713560
   53       -0.184007   0.008447
   54       -0.183816   0.008385
   55       -0.182204   0.007878
   56       -0.181888   0.007782
   57        0.136730   0.000000
   58        0.137226   0.000000
   59        0.137323   0.000000
   60        0.137855   0.000000
   61        0.220146   0.000000
   62        0.254542   0.000000
   63        0.254640   0.000000
   64        0.255414   0.000000
   65        0.255446   0.000000
   66        0.396215   0.000000
   67        0.396326   0.000000
   68        0.397151   0.000000
   69        0.397190   0.000000
   70        0.457905   0.000000
   71        0.458078   0.000000
   72        0.459342   0.000000
   73        0.459661   0.000000
   74        0.631684   0.000000
   75        0.631745   0.000000
   76        0.634790   0.000000
   77        0.634944   0.000000
   78        0.728923   0.000000
   79        0.729382   0.000000
   80        0.729491   0.000000
   81        0.729942   0.000000
   82        0.893599   0.000000
   83        0.893679   0.000000
   84        0.894230   0.000000
   85        0.894326   0.000000
   86        0.928257   0.000000
   87        0.939614   0.000000
   88        0.939857   0.000000
   89        0.939894   0.000000
   90        0.940094   0.000000
   91        1.072647   0.000000
   92        1.073793   0.000000
   93        1.073882   0.000000
   94        1.074873   0.000000
   95        1.251847   0.000000
   96        1.252101   0.000000
   97        1.252800   0.000000
   98        1.253175   0.000000
   99        1.304262   0.000000
  100        1.305640   0.000000
  101        1.305702   0.000000
  102        1.306907   0.000000
  103        1.344732   0.000000
  104        1.345909   0.000000
  105        1.346056   0.000000
  106        1.347075   0.000000
  107        1.454367   0.000000
  108        1.454491   0.000000
  109        1.458757   0.000000
  110        1.458919   0.000000
  111        1.459053   0.000000
  112        1.459248   0.000000
 
  0.5000000E+00  0.0000000E+00  0.0000000E+00  0.5000000E+00
    1       -3.042185   1.000000
    2       -3.042056   1.000000
    3       -3.041877   1.000000
    4       -3.041566   1.000000
    5       -2.892274   1.000000
    6       -2.891225   1.000000
    7       -2.891171   1.000000
    8       -2.890098   1.000000
    9       -2.634516   1.000000
   10       -2.633500   1.000000
   11       -2.633397   1.000000
   12       -2.632357   1.000000
   13       -2.265101   1.000000
   14       -2.264301   1.000000
   15       -2.264221   1.000000
   16       -2.263443   1.000000
   17       -1.802649   1.000000
   18       -1.802455   1.000000
   19       -1.802388   1.000000
   20       -1.802315   1.000000
   21       -1.259347   1.000000
   22       -1.258343   1.000000
   23       -1.258139   1.000000
   24       -1.256984   1.000000
   25       -1.135651   1.000000
   26       -1.135598   1.000000
   27       -1.135466   1.000000
   28       -1.135401   1.000000
   29       -1.135280   1.000000
   30       -1.135180   1.000000
   31       -1.135001   1.000000
   32       -1.134950   1.000000
   33       -0.990562   1.000000
   34       -0.990545   1.000000
   35       -0.989896   1.000000
   36       -0.989783   1.000000
   37       -0.989158   1.000000
   38       -0.989098   1.000000
   39       -0.988386   1.000000
   40       -0.988384   1.000000
   41       -0.740999   1.000000
   42       -0.740803   1.000000
   43       -0.740182   1.000000
   44       -0.740115   1.000000
   45       -0.737913   1.000000
   46       -0.737842   1.000000
   47       -0.737348   1.000000
   48       -0.737307   1.000000
   49       -0.646557   0.999984
   50       -0.645708   0.999983
   51       -0.645518   0.999982
   52       -0.644732   0.999982
   53       -0.381033   0.654449
   54       -0.381008   0.654318
   55       -0.380102   0.649584
   56       -0.379999   0.649046
   57       -0.379874   0.648386
   58       -0.379746   0.647717
   59       -0.378741   0.642427
   60       -0.378694   0.642176
   61        0.012999   0.000000
   62        0.013852   0.000000
   63        0.014065   0.000000
   64        0.014912   0.000000
   65        0.065911   0.000000
   66        0.066117   0.000000
   67        0.066716   0.000000
   68        0.066769   0.000000
   69        0.066980   0.000000
   70        0.067071   0.000000
   71        0.067480   0.000000
   72        0.067677   0.000000
   73        0.503589   0.000000
   74        0.503612   0.000000
   75        0.572018   0.000000
   76        0.572031   0.000000
   77        0.572568   0.000000
   78        0.572799   0.000000
   79        0.574465   0.000000
   80        0.574774   0.000000
   81        0.575213   0.000000
   82        0.575357   0.000000
   83        0.637440   0.000000
   84        0.637594   0.000000
   85        0.671889   0.000000
   86        0.672513   0.000000
   87        0.672760   0.000000
   88        0.673328   0.000000
   89        0.869270   0.000000
   90        0.869303   0.000000
   91        0.981564   0.000000
   92        0.981726   0.000000
   93        1.128264   0.000000
   94        1.128364   0.000000
   95        1.209171   0.000000
   96        1.209194   0.000000
   97        1.246245   0.000000
   98        1.246345   0.000000
   99        1.246465   0.000000
  100        1.246638   0.000000
  101        1.246928   0.000000
  102        1.247034   0.000000
  103        1.247076   0.000000
  104        1.247208   0.000000
  105        1.362406   0.000000
  106        1.363391   0.000000
  107        1.363616   0.000000
  108        1.364102   0.000000
  109        1.379073   0.000000
  110        1.379226   0.000000
  111        1.643325   0.000000
  112        1.643341   0.000000
