 vasp.6.2.1 16May21 (build Dec 23 2021 00:35:04) complex                        
  
 executed on             LinuxIFC date 2023.03.03  01:22:12
 running on  128 total cores
 distrk:  each k-point on  128 cores,    1 groups
 distr:  one band on NCORE=  16 cores,    8 groups


--------------------------------------------------------------------------------------------------------


 INCAR:
   AMIN = 0.010000
   ENCUT = 400.000000
   KSPACING = 0.500000
   SIGMA = 0.100000
   EDIFF = 1.00e-08
   EDIFFG = -1.00e-02
   ALGO = Fast
   GGA = PE
   PREC = Normal
   IBRION = 2
   IDIPOL = 3
   ISIF = 2
   ISMEAR = 0
   ISPIN = 0
   ISYM = 0
   LMAXMIX = 6
   NELM = 150
   NPAR = 8
   NSW = 800
   NWRITE = 1
   DIPOL = 0.3889 0.4167 0.5000
   KGAMMA = .TRUE.
   LASPH = .TRUE.
   LCHARG = .FALSE.
   LDIPOL = .TRUE.
   LWAVE = .FALSE.
   LREAL = AUTO

 POTCAR:    PAW_PBE Na 08Apr2002                  
 POTCAR:    PAW_PBE Na 08Apr2002                  
  local pseudopotential read in
  partial core-charges read in
  partial kinetic energy density read in
  atomic valenz-charges read in
  non local Contribution for L=           0  read in
    real space projection operators read in
  non local Contribution for L=           0  read in
    real space projection operators read in
  non local Contribution for L=           1  read in
    real space projection operators read in
    PAW grid and wavefunctions read in
 
   number of l-projection  operators is LMAX  =           3
   number of lm-projection operators is LMMAX =           5
 
 Optimization of the real space projectors (new method)

 maximal supplied QI-value         = 17.01
 optimisation between [QCUT,QGAM] = [ 10.20, 20.41] = [ 29.16,116.64] Ry 
 Optimized for a Real-space Cutoff    1.19 Angstroem

   l    n(q)    QCUT    max X(q) W(low)/X(q) W(high)/X(q)  e(spline) 
   0      7    10.205    45.123    0.22E-03    0.82E-03    0.11E-06
   0      7    10.205    12.364    0.17E-03    0.61E-03    0.75E-07
   1      7    10.205     8.302    0.37E-03    0.15E-03    0.27E-07
  PAW_PBE Na 08Apr2002                  :
 energy of atom  1       EATOM=   -5.1581
 kinetic energy error for atom=    0.0001 (will be added to EATOM!!)
 
 
 POSCAR: Na
  positions in cartesian coordinates
  No initial velocities read in
 exchange correlation table for  LEXCH =        8
   RHO(1)=    0.500       N(1)  =     2000
   RHO(2)=  100.500       N(2)  =     4000
 


--------------------------------------------------------------------------------------------------------


 ion  position               nearest neighbor table
   1  0.000  0.000  0.231-   4 3.63   2 3.63  40 3.63  88 3.63  64 3.63  86 3.63  38 3.63  62 3.63
                            73 4.20   3 4.20  85 4.20  37 4.20  13 4.20
   2  0.000  0.167  0.171-   1 3.63  13 3.63  73 3.63  25 3.63  86 4.20   4 4.20  14 4.20  74 4.20
                            38 4.20
   3  0.000  0.000  0.350-   6 3.63   4 3.63  42 3.63  90 3.63  66 3.63  88 3.63  40 3.63  64 3.63
                            75 4.20   1 4.20   5 4.20  87 4.20  39 4.20  15 4.20
   4  0.000  0.167  0.291-   1 3.63   3 3.63  13 3.63  73 3.63  25 3.63  15 3.63  75 3.63  27 3.63
                            88 4.20   6 4.20   2 4.20  40 4.20  76 4.20  16 4.20
   5  0.000  0.000  0.470-   8 3.63   6 3.63  44 3.63  92 3.63  68 3.63  90 3.63  42 3.63  66 3.63
                            77 4.20   3 4.20   7 4.20  89 4.20  41 4.20  17 4.20
   6  0.000  0.167  0.410-   3 3.63   5 3.63  15 3.63  75 3.63  27 3.63  17 3.63  77 3.63  29 3.63
                            90 4.20   8 4.20   4 4.20  42 4.20  78 4.20  18 4.20
   7  0.000  0.000  0.590-  10 3.63   8 3.63  46 3.63  94 3.63  70 3.63  92 3.63  44 3.63  68 3.63
                            79 4.20   5 4.20   9 4.20  91 4.20  43 4.20  19 4.20
   8  0.000  0.167  0.530-   5 3.63   7 3.63  17 3.63  77 3.63  29 3.63  19 3.63  79 3.63  31 3.63
                            92 4.20  10 4.20   6 4.20  44 4.20  80 4.20  20 4.20
   9  0.000  0.000  0.709-  12 3.63  10 3.63  48 3.63  96 3.63  72 3.63  94 3.63  46 3.63  70 3.63
                            81 4.20   7 4.20  11 4.20  93 4.20  45 4.20  21 4.20
  10  0.000  0.167  0.650-   7 3.63   9 3.63  19 3.63  79 3.63  31 3.63  21 3.63  81 3.63  33 3.63
                            94 4.20  12 4.20   8 4.20  46 4.20  82 4.20  22 4.20
  11  0.000  0.000  0.829-  12 3.63  48 3.63  96 3.63  72 3.63  83 4.20   9 4.20  23 4.20  95 4.20
                            47 4.20
  12  0.000  0.167  0.769-   9 3.63  11 3.63  21 3.63  81 3.63  33 3.63  23 3.63  83 3.63  35 3.63
                            96 4.20  10 4.20  48 4.20  84 4.20  24 4.20
  13  0.333  0.000  0.231-  16 3.63  14 3.63 100 3.63   4 3.63  98 3.63  88 3.63   2 3.63  86 3.63
                            37 4.20  25 4.20  15 4.20   1 4.20  97 4.20
  14  0.333  0.167  0.171-  13 3.63  37 3.63  25 3.63  49 3.63  38 4.20  98 4.20  16 4.20   2 4.20
                            26 4.20
  15  0.333  0.000  0.350-  18 3.63  16 3.63 102 3.63   6 3.63 100 3.63  90 3.63   4 3.63  88 3.63
                            39 4.20  27 4.20  17 4.20  13 4.20   3 4.20  99 4.20
  16  0.333  0.167  0.291-  13 3.63  15 3.63  37 3.63  25 3.63  39 3.63  49 3.63  27 3.63  51 3.63
                            40 4.20 100 4.20  14 4.20  18 4.20   4 4.20  28 4.20
  17  0.333  0.000  0.470-  20 3.63  18 3.63 104 3.63   8 3.63 102 3.63  92 3.63   6 3.63  90 3.63
                            41 4.20  29 4.20  19 4.20  15 4.20   5 4.20 101 4.20
  18  0.333  0.167  0.410-  15 3.63  17 3.63  39 3.63  27 3.63  41 3.63  51 3.63  29 3.63  53 3.63
                            42 4.20 102 4.20  16 4.20  20 4.20   6 4.20  30 4.20
  19  0.333  0.000  0.590-  22 3.63  20 3.63 106 3.63  10 3.63 104 3.63  94 3.63   8 3.63  92 3.63
                            43 4.20  31 4.20  21 4.20  17 4.20   7 4.20 103 4.20
  20  0.333  0.167  0.530-  17 3.63  19 3.63  41 3.63  29 3.63  43 3.63  53 3.63  31 3.63  55 3.63
                            44 4.20 104 4.20  18 4.20  22 4.20   8 4.20  32 4.20
  21  0.333  0.000  0.709-  24 3.63  22 3.63 108 3.63  12 3.63 106 3.63  96 3.63  10 3.63  94 3.63
                            45 4.20  33 4.20  23 4.20  19 4.20   9 4.20 105 4.20
  22  0.333  0.167  0.650-  19 3.63  21 3.63  43 3.63  31 3.63  45 3.63  55 3.63  33 3.63  57 3.63
                            46 4.20 106 4.20  20 4.20  24 4.20  10 4.20  34 4.20
  23  0.333  0.000  0.829-  24 3.63 108 3.63  12 3.63  96 3.63  47 4.20  35 4.20  21 4.20 107 4.20
                            11 4.20
  24  0.333  0.167  0.769-  21 3.63  23 3.63  45 3.63  33 3.63  47 3.63  57 3.63  35 3.63  59 3.63
                            48 4.20 108 4.20  22 4.20  12 4.20  36 4.20
  25  0.000  0.333  0.231-  28 3.63  16 3.63  76 3.63  26 3.63   4 3.63  74 3.63  14 3.63   2 3.63
                            13 4.20  27 4.20  49 4.20  73 4.20  97 4.20
  26  0.000  0.500  0.171-  25 3.63  49 3.63  97 3.63  61 3.63  28 4.20  14 4.20  74 4.20  50 4.20
                            98 4.20
  27  0.000  0.333  0.350-  30 3.63  18 3.63  78 3.63  28 3.63   6 3.63  76 3.63  16 3.63   4 3.63
                            15 4.20  29 4.20  25 4.20  51 4.20  75 4.20  99 4.20
  28  0.000  0.500  0.291-  25 3.63  49 3.63  97 3.63  27 3.63  61 3.63  51 3.63  99 3.63  63 3.63
                            26 4.20  30 4.20  76 4.20  16 4.20  52 4.20 100 4.20
  29  0.000  0.333  0.470-  32 3.63  20 3.63  80 3.63  30 3.63   8 3.63  78 3.63  18 3.63   6 3.63
                            17 4.20  31 4.20  27 4.20  53 4.20  77 4.20 101 4.20
  30  0.000  0.500  0.410-  27 3.63  51 3.63  99 3.63  29 3.63  63 3.63  53 3.63 101 3.63  65 3.63
                            28 4.20  32 4.20  78 4.20  18 4.20  54 4.20 102 4.20
  31  0.000  0.333  0.590-  34 3.63  22 3.63  82 3.63  32 3.63  10 3.63  80 3.63  20 3.63   8 3.63
                            19 4.20  33 4.20  29 4.20  55 4.20  79 4.20 103 4.20
  32  0.000  0.500  0.530-  29 3.63  53 3.63 101 3.63  31 3.63  65 3.63  55 3.63 103 3.63  67 3.63
                            30 4.20  34 4.20  80 4.20  20 4.20  56 4.20 104 4.20
  33  0.000  0.333  0.709-  36 3.63  24 3.63  84 3.63  34 3.63  12 3.63  82 3.63  22 3.63  10 3.63
                            21 4.20  35 4.20  31 4.20  57 4.20  81 4.20 105 4.20
  34  0.000  0.500  0.650-  31 3.63  55 3.63 103 3.63  33 3.63  67 3.63  57 3.63 105 3.63  69 3.63
                            32 4.20  36 4.20  82 4.20  22 4.20  58 4.20 106 4.20
  35  0.000  0.333  0.829-  36 3.63  24 3.63  84 3.63  12 3.63  23 4.20  33 4.20  83 4.20  59 4.20
                           107 4.20
  36  0.000  0.500  0.769-  33 3.63  57 3.63 105 3.63  35 3.63  69 3.63  59 3.63 107 3.63  71 3.63
                            34 4.20  84 4.20  24 4.20  60 4.20 108 4.20
  37  0.667  0.000  0.231-  40 3.63  38 3.63  16 3.63  64 3.63  14 3.63 100 3.63  62 3.63  98 3.63
                            13 4.20  49 4.20  39 4.20   1 4.20  61 4.20
  38  0.667  0.167  0.171-  37 3.63  49 3.63   1 3.63  73 3.63  14 4.20  62 4.20  40 4.20   2 4.20
                            50 4.20
  39  0.667  0.000  0.350-  42 3.63  40 3.63  18 3.63  66 3.63  16 3.63 102 3.63  64 3.63 100 3.63
                            15 4.20  51 4.20  37 4.20  41 4.20   3 4.20  63 4.20
  40  0.667  0.167  0.291-  37 3.63  39 3.63  49 3.63   1 3.63  51 3.63  73 3.63   3 3.63  75 3.63
                            16 4.20  64 4.20  42 4.20  38 4.20  52 4.20   4 4.20
  41  0.667  0.000  0.470-  44 3.63  42 3.63  20 3.63  68 3.63  18 3.63 104 3.63  66 3.63 102 3.63
                            17 4.20  53 4.20  39 4.20  43 4.20   5 4.20  65 4.20
  42  0.667  0.167  0.410-  39 3.63  41 3.63  51 3.63   3 3.63  53 3.63  75 3.63   5 3.63  77 3.63
                            18 4.20  66 4.20  44 4.20  40 4.20  54 4.20   6 4.20
  43  0.667  0.000  0.590-  46 3.63  44 3.63  22 3.63  70 3.63  20 3.63 106 3.63  68 3.63 104 3.63
                            19 4.20  55 4.20  41 4.20  45 4.20   7 4.20  67 4.20
  44  0.667  0.167  0.530-  41 3.63  43 3.63  53 3.63   5 3.63  55 3.63  77 3.63   7 3.63  79 3.63
                            20 4.20  68 4.20  46 4.20  42 4.20  56 4.20   8 4.20
  45  0.667  0.000  0.709-  48 3.63  46 3.63  24 3.63  72 3.63  22 3.63 108 3.63  70 3.63 106 3.63
                            21 4.20  57 4.20  43 4.20  47 4.20   9 4.20  69 4.20
  46  0.667  0.167  0.650-  43 3.63  45 3.63  55 3.63   7 3.63  57 3.63  79 3.63   9 3.63  81 3.63
                            22 4.20  70 4.20  48 4.20  44 4.20  58 4.20  10 4.20
  47  0.667  0.000  0.829-  48 3.63  24 3.63  72 3.63 108 3.63  23 4.20  59 4.20  45 4.20  11 4.20
                            71 4.20
  48  0.667  0.167  0.769-  45 3.63  47 3.63  57 3.63   9 3.63  59 3.63  81 3.63  11 3.63  83 3.63
                            24 4.20  72 4.20  46 4.20  60 4.20  12 4.20
  49  0.333  0.333  0.231-  52 3.63  40 3.63  28 3.63  50 3.63  38 3.63  16 3.63  26 3.63  14 3.63
                            37 4.20  73 4.20  51 4.20  61 4.20  25 4.20
  50  0.333  0.500  0.171-  49 3.63  73 3.63  61 3.63  85 3.63  74 4.20  52 4.20  38 4.20  26 4.20
                            62 4.20
  51  0.333  0.333  0.350-  54 3.63  42 3.63  30 3.63  52 3.63  40 3.63  18 3.63  28 3.63  16 3.63
                            39 4.20  75 4.20  49 4.20  53 4.20  63 4.20  27 4.20
  52  0.333  0.500  0.291-  49 3.63  73 3.63  61 3.63  51 3.63  75 3.63  85 3.63  63 3.63  87 3.63
                            76 4.20  54 4.20  50 4.20  64 4.20  28 4.20  40 4.20
  53  0.333  0.333  0.470-  56 3.63  44 3.63  32 3.63  54 3.63  42 3.63  20 3.63  30 3.63  18 3.63
                            41 4.20  77 4.20  51 4.20  55 4.20  65 4.20  29 4.20
  54  0.333  0.500  0.410-  51 3.63  75 3.63  63 3.63  53 3.63  77 3.63  87 3.63  65 3.63  89 3.63
                            78 4.20  56 4.20  52 4.20  66 4.20  30 4.20  42 4.20
  55  0.333  0.333  0.590-  58 3.63  46 3.63  34 3.63  56 3.63  44 3.63  22 3.63  32 3.63  20 3.63
                            43 4.20  79 4.20  53 4.20  57 4.20  67 4.20  31 4.20
  56  0.333  0.500  0.530-  53 3.63  77 3.63  65 3.63  55 3.63  79 3.63  89 3.63  67 3.63  91 3.63
                            80 4.20  58 4.20  54 4.20  68 4.20  32 4.20  44 4.20
  57  0.333  0.333  0.709-  60 3.63  48 3.63  36 3.63  58 3.63  46 3.63  24 3.63  34 3.63  22 3.63
                            45 4.20  81 4.20  55 4.20  59 4.20  69 4.20  33 4.20
  58  0.333  0.500  0.650-  55 3.63  79 3.63  67 3.63  57 3.63  81 3.63  91 3.63  69 3.63  93 3.63
                            82 4.20  60 4.20  56 4.20  70 4.20  34 4.20  46 4.20
  59  0.333  0.333  0.829-  60 3.63  48 3.63  36 3.63  24 3.63  47 4.20  83 4.20  57 4.20  71 4.20
                            35 4.20
  60  0.333  0.500  0.769-  57 3.63  81 3.63  69 3.63  59 3.63  83 3.63  93 3.63  71 3.63  95 3.63
                            84 4.20  58 4.20  72 4.20  48 4.20  36 4.20
  61  0.000  0.667  0.231-  64 3.63  52 3.63 100 3.63  62 3.63  28 3.63  98 3.63  50 3.63  26 3.63
                            63 4.20  85 4.20  97 4.20  49 4.20  37 4.20
  62  0.000  0.833  0.171-  61 3.63  37 3.63  85 3.63   1 3.63  38 4.20  64 4.20  50 4.20  86 4.20
                            98 4.20
  63  0.000  0.667  0.350-  66 3.63  54 3.63 102 3.63  64 3.63  30 3.63 100 3.63  52 3.63  28 3.63
                            65 4.20  61 4.20  87 4.20  99 4.20  39 4.20  51 4.20
  64  0.000  0.833  0.291-  61 3.63  37 3.63  85 3.63  63 3.63   1 3.63  39 3.63  87 3.63   3 3.63
                            40 4.20  62 4.20  66 4.20  52 4.20  88 4.20 100 4.20
  65  0.000  0.667  0.470-  68 3.63  56 3.63 104 3.63  66 3.63  32 3.63 102 3.63  54 3.63  30 3.63
                            67 4.20  63 4.20  89 4.20 101 4.20  41 4.20  53 4.20
  66  0.000  0.833  0.410-  63 3.63  39 3.63  87 3.63  65 3.63   3 3.63  41 3.63  89 3.63   5 3.63
                            42 4.20  64 4.20  68 4.20  54 4.20  90 4.20 102 4.20
  67  0.000  0.667  0.590-  70 3.63  58 3.63 106 3.63  68 3.63  34 3.63 104 3.63  56 3.63  32 3.63
                            69 4.20  65 4.20  91 4.20 103 4.20  43 4.20  55 4.20
  68  0.000  0.833  0.530-  65 3.63  41 3.63  89 3.63  67 3.63   5 3.63  43 3.63  91 3.63   7 3.63
                            44 4.20  66 4.20  70 4.20  56 4.20  92 4.20 104 4.20
  69  0.000  0.667  0.709-  72 3.63  60 3.63 108 3.63  70 3.63  36 3.63 106 3.63  58 3.63  34 3.63
                            71 4.20  67 4.20  93 4.20 105 4.20  45 4.20  57 4.20
  70  0.000  0.833  0.650-  67 3.63  43 3.63  91 3.63  69 3.63   7 3.63  45 3.63  93 3.63   9 3.63
                            46 4.20  68 4.20  72 4.20  58 4.20  94 4.20 106 4.20
  71  0.000  0.667  0.829-  72 3.63  60 3.63 108 3.63  36 3.63  69 4.20  47 4.20  95 4.20 107 4.20
                            59 4.20
  72  0.000  0.833  0.769-  69 3.63  45 3.63  93 3.63  71 3.63   9 3.63  47 3.63  95 3.63  11 3.63
                            48 4.20  70 4.20  60 4.20  96 4.20 108 4.20
  73  0.667  0.333  0.231-  76 3.63  52 3.63   4 3.63  74 3.63  50 3.63  40 3.63   2 3.63  38 3.63
                            49 4.20   1 4.20  75 4.20  25 4.20  85 4.20
  74  0.667  0.500  0.171-  73 3.63  85 3.63  25 3.63  97 3.63  50 4.20  76 4.20  26 4.20  86 4.20
                             2 4.20
  75  0.667  0.333  0.350-  78 3.63  54 3.63   6 3.63  76 3.63  52 3.63  42 3.63   4 3.63  40 3.63
                            51 4.20   3 4.20  77 4.20  73 4.20  27 4.20  87 4.20
  76  0.667  0.500  0.291-  73 3.63  85 3.63  25 3.63  75 3.63  87 3.63  97 3.63  27 3.63  99 3.63
                            52 4.20  74 4.20  78 4.20  88 4.20  28 4.20   4 4.20
  77  0.667  0.333  0.470-  80 3.63  56 3.63   8 3.63  78 3.63  54 3.63  44 3.63   6 3.63  42 3.63
                            53 4.20   5 4.20  79 4.20  75 4.20  29 4.20  89 4.20
  78  0.667  0.500  0.410-  75 3.63  87 3.63  27 3.63  77 3.63  89 3.63  99 3.63  29 3.63 101 3.63
                            54 4.20  76 4.20  80 4.20  90 4.20  30 4.20   6 4.20
  79  0.667  0.333  0.590-  82 3.63  58 3.63  10 3.63  80 3.63  56 3.63  46 3.63   8 3.63  44 3.63
                            55 4.20   7 4.20  81 4.20  77 4.20  31 4.20  91 4.20
  80  0.667  0.500  0.530-  77 3.63  89 3.63  29 3.63  79 3.63  91 3.63 101 3.63  31 3.63 103 3.63
                            56 4.20  78 4.20  82 4.20  92 4.20  32 4.20   8 4.20
  81  0.667  0.333  0.709-  84 3.63  60 3.63  12 3.63  82 3.63  58 3.63  48 3.63  10 3.63  46 3.63
                            57 4.20   9 4.20  83 4.20  79 4.20  33 4.20  93 4.20
  82  0.667  0.500  0.650-  79 3.63  91 3.63  31 3.63  81 3.63  93 3.63 103 3.63  33 3.63 105 3.63
                            58 4.20  80 4.20  84 4.20  94 4.20  34 4.20  10 4.20
  83  0.667  0.333  0.829-  84 3.63  60 3.63  12 3.63  48 3.63  59 4.20  11 4.20  81 4.20  35 4.20
                            95 4.20
  84  0.667  0.500  0.769-  81 3.63  93 3.63  33 3.63  83 3.63  95 3.63 105 3.63  35 3.63 107 3.63
                            60 4.20  82 4.20  96 4.20  12 4.20  36 4.20
  85  0.333  0.667  0.231-  88 3.63  76 3.63  64 3.63  86 3.63  74 3.63  52 3.63  62 3.63  50 3.63
                            97 4.20  87 4.20   1 4.20  61 4.20  73 4.20
  86  0.333  0.833  0.171-  85 3.63  97 3.63   1 3.63  13 3.63  98 4.20   2 4.20  88 4.20  62 4.20
                            74 4.20
  87  0.333  0.667  0.350-  90 3.63  78 3.63  66 3.63  88 3.63  76 3.63  54 3.63  64 3.63  52 3.63
                            99 4.20  85 4.20  89 4.20  63 4.20  75 4.20   3 4.20
  88  0.333  0.833  0.291-  85 3.63  97 3.63   1 3.63  87 3.63  99 3.63  13 3.63   3 3.63  15 3.63
                           100 4.20   4 4.20  90 4.20  86 4.20  76 4.20  64 4.20
  89  0.333  0.667  0.470-  92 3.63  80 3.63  68 3.63  90 3.63  78 3.63  56 3.63  66 3.63  54 3.63
                           101 4.20  87 4.20  91 4.20  65 4.20  77 4.20   5 4.20
  90  0.333  0.833  0.410-  87 3.63  99 3.63   3 3.63  89 3.63 101 3.63  15 3.63   5 3.63  17 3.63
                           102 4.20   6 4.20  92 4.20  88 4.20  78 4.20  66 4.20
  91  0.333  0.667  0.590-  94 3.63  82 3.63  70 3.63  92 3.63  80 3.63  58 3.63  68 3.63  56 3.63
                           103 4.20  89 4.20  93 4.20  67 4.20  79 4.20   7 4.20
  92  0.333  0.833  0.530-  89 3.63 101 3.63   5 3.63  91 3.63 103 3.63  17 3.63   7 3.63  19 3.63
                           104 4.20   8 4.20  94 4.20  90 4.20  80 4.20  68 4.20
  93  0.333  0.667  0.709-  96 3.63  84 3.63  72 3.63  94 3.63  82 3.63  60 3.63  70 3.63  58 3.63
                           105 4.20  91 4.20  95 4.20  69 4.20  81 4.20   9 4.20
  94  0.333  0.833  0.650-  91 3.63 103 3.63   7 3.63  93 3.63 105 3.63  19 3.63   9 3.63  21 3.63
                           106 4.20  10 4.20  96 4.20  92 4.20  82 4.20  70 4.20
  95  0.333  0.667  0.829-  96 3.63  84 3.63  72 3.63  60 3.63 107 4.20  93 4.20  11 4.20  83 4.20
                            71 4.20
  96  0.333  0.833  0.769-  93 3.63 105 3.63   9 3.63  95 3.63 107 3.63  21 3.63  11 3.63  23 3.63
                           108 4.20  12 4.20  94 4.20  72 4.20  84 4.20
  97  0.667  0.667  0.231- 100 3.63  88 3.63  28 3.63  98 3.63  86 3.63  76 3.63  26 3.63  74 3.63
                            85 4.20  99 4.20  61 4.20  13 4.20  25 4.20
  98  0.667  0.833  0.171-  97 3.63  13 3.63  61 3.63  37 3.63  86 4.20  14 4.20 100 4.20  62 4.20
                            26 4.20
  99  0.667  0.667  0.350- 102 3.63  90 3.63  30 3.63 100 3.63  88 3.63  78 3.63  28 3.63  76 3.63
                            87 4.20 101 4.20  97 4.20  15 4.20  27 4.20  63 4.20
 100  0.667  0.833  0.291-  97 3.63  13 3.63  61 3.63  99 3.63  15 3.63  37 3.63  63 3.63  39 3.63
                            16 4.20  88 4.20  98 4.20 102 4.20  64 4.20  28 4.20
 101  0.667  0.667  0.470- 104 3.63  92 3.63  32 3.63 102 3.63  90 3.63  80 3.63  30 3.63  78 3.63
                            89 4.20 103 4.20  99 4.20  17 4.20  29 4.20  65 4.20
 102  0.667  0.833  0.410-  99 3.63  15 3.63  63 3.63 101 3.63  17 3.63  39 3.63  65 3.63  41 3.63
                            18 4.20  90 4.20 100 4.20 104 4.20  66 4.20  30 4.20
 103  0.667  0.667  0.590- 106 3.63  94 3.63  34 3.63 104 3.63  92 3.63  82 3.63  32 3.63  80 3.63
                            91 4.20 105 4.20 101 4.20  19 4.20  31 4.20  67 4.20
 104  0.667  0.833  0.530- 101 3.63  17 3.63  65 3.63 103 3.63  19 3.63  41 3.63  67 3.63  43 3.63
                            20 4.20  92 4.20 102 4.20 106 4.20  68 4.20  32 4.20
 105  0.667  0.667  0.709- 108 3.63  96 3.63  36 3.63 106 3.63  94 3.63  84 3.63  34 3.63  82 3.63
                            93 4.20 107 4.20 103 4.20  21 4.20  33 4.20  69 4.20
 106  0.667  0.833  0.650- 103 3.63  19 3.63  67 3.63 105 3.63  21 3.63  43 3.63  69 3.63  45 3.63
                            22 4.20  94 4.20 104 4.20 108 4.20  70 4.20  34 4.20
 107  0.667  0.667  0.829- 108 3.63  96 3.63  36 3.63  84 3.63  95 4.20 105 4.20  71 4.20  35 4.20
                            23 4.20
 108  0.667  0.833  0.769- 105 3.63  21 3.63  69 3.63 107 3.63  23 3.63  45 3.63  71 3.63  47 3.63
                            24 4.20  96 4.20 106 4.20  36 4.20  72 4.20
 

IMPORTANT INFORMATION: All symmetrisations will be switched off!
NOSYMM: (Re-)initialisation of all symmetry stuff for point group C_1.


----------------------------------------------------------------------------------------

                                     Primitive cell                                     

  volume of cell :    5556.4517

  direct lattice vectors                    reciprocal lattice vectors
    -8.899897720  8.899897720  0.000000000    -0.000000000  0.112360842  0.000000000
   -17.799795441 -0.000000000  0.000000000    -0.056180421 -0.056180421  0.000000000
     0.000000000  0.000000000 35.074986530     0.000000000  0.000000000  0.028510346

  length of vectors
    12.586356060 17.799795441 35.074986530     0.112360842  0.079451113  0.028510346

  position of ions in fractional coordinates (direct lattice)
     0.000000000  0.000000033  0.230868982
     0.000000000  0.166666667  0.171062076
     0.000000000  0.000000033  0.350482770
     0.000000000  0.166666667  0.290675864
     0.000000000  0.000000033  0.470096559
     0.000000000  0.166666667  0.410289653
     0.000000000  0.000000033  0.589710347
     0.000000000  0.166666667  0.529903441
     0.000000000  0.000000033  0.709324136
     0.000000000  0.166666667  0.649517230
     0.000000000  0.000000033  0.828937924
     0.000000000  0.166666667  0.769131018
     0.333333333  0.000000033  0.230868982
     0.333333333  0.166666667  0.171062076
     0.333333333  0.000000033  0.350482770
     0.333333333  0.166666667  0.290675864
     0.333333333  0.000000033  0.470096559
     0.333333333  0.166666667  0.410289653
     0.333333333  0.000000033  0.589710347
     0.333333333  0.166666667  0.529903441
     0.333333333  0.000000033  0.709324136
     0.333333333  0.166666667  0.649517230
     0.333333333  0.000000033  0.828937924
     0.333333333  0.166666667  0.769131018
     0.000000000  0.333333367  0.230868982
     0.000000000  0.500000000  0.171062076
     0.000000000  0.333333367  0.350482770
     0.000000000  0.500000000  0.290675864
     0.000000000  0.333333367  0.470096559
     0.000000000  0.500000000  0.410289653
     0.000000000  0.333333367  0.589710347
     0.000000000  0.500000000  0.529903441
     0.000000000  0.333333367  0.709324136
     0.000000000  0.500000000  0.649517230
     0.000000000  0.333333367  0.828937924
     0.000000000  0.500000000  0.769131018
     0.666666667  0.000000033  0.230868982
     0.666666667  0.166666667  0.171062076
     0.666666667  0.000000033  0.350482770
     0.666666667  0.166666667  0.290675864
     0.666666667  0.000000033  0.470096559
     0.666666667  0.166666667  0.410289653
     0.666666667  0.000000033  0.589710347
     0.666666667  0.166666667  0.529903441
     0.666666667  0.000000033  0.709324136
     0.666666667  0.166666667  0.649517230
     0.666666667  0.000000033  0.828937924
     0.666666667  0.166666667  0.769131018
     0.333333333  0.333333367  0.230868982
     0.333333333  0.500000000  0.171062076
     0.333333333  0.333333367  0.350482770
     0.333333333  0.500000000  0.290675864
     0.333333333  0.333333367  0.470096559
     0.333333333  0.500000000  0.410289653
     0.333333333  0.333333367  0.589710347
     0.333333333  0.500000000  0.529903441
     0.333333333  0.333333367  0.709324136
     0.333333333  0.500000000  0.649517230
     0.333333333  0.333333367  0.828937924
     0.333333333  0.500000000  0.769131018
     0.000000000  0.666666700  0.230868982
     0.000000000  0.833333333  0.171062076
     0.000000000  0.666666700  0.350482770
     0.000000000  0.833333333  0.290675864
     0.000000000  0.666666700  0.470096559
     0.000000000  0.833333333  0.410289653
     0.000000000  0.666666700  0.589710347
     0.000000000  0.833333333  0.529903441
     0.000000000  0.666666700  0.709324136
     0.000000000  0.833333333  0.649517230
     0.000000000  0.666666700  0.828937924
     0.000000000  0.833333333  0.769131018
     0.666666667  0.333333367  0.230868982
     0.666666667  0.500000000  0.171062076
     0.666666667  0.333333367  0.350482770
     0.666666667  0.500000000  0.290675864
     0.666666667  0.333333367  0.470096559
     0.666666667  0.500000000  0.410289653
     0.666666667  0.333333367  0.589710347
     0.666666667  0.500000000  0.529903441
     0.666666667  0.333333367  0.709324136
     0.666666667  0.500000000  0.649517230
     0.666666667  0.333333367  0.828937924
     0.666666667  0.500000000  0.769131018
     0.333333333  0.666666700  0.230868982
     0.333333333  0.833333333  0.171062076
     0.333333333  0.666666700  0.350482770
     0.333333333  0.833333333  0.290675864
     0.333333333  0.666666700  0.470096559
     0.333333333  0.833333333  0.410289653
     0.333333333  0.666666700  0.589710347
     0.333333333  0.833333333  0.529903441
     0.333333333  0.666666700  0.709324136
     0.333333333  0.833333333  0.649517230
     0.333333333  0.666666700  0.828937924
     0.333333333  0.833333333  0.769131018
     0.666666667  0.666666700  0.230868982
     0.666666667  0.833333333  0.171062076
     0.666666667  0.666666700  0.350482770
     0.666666667  0.833333333  0.290675864
     0.666666667  0.666666700  0.470096559
     0.666666667  0.833333333  0.410289653
     0.666666667  0.666666700  0.589710347
     0.666666667  0.833333333  0.529903441
     0.666666667  0.666666700  0.709324136
     0.666666667  0.833333333  0.649517230
     0.666666667  0.666666700  0.828937924
     0.666666667  0.833333333  0.769131018

  ion indices of the primitive-cell ions
   primitive index   ion index
                 1           1
                 2           2
                 3           3
                 4           4
                 5           5
                 6           6
                 7           7
                 8           8
                 9           9
                10          10
                11          11
                12          12
                13          13
                14          14
                15          15
                16          16
                17          17
                18          18
                19          19
                20          20
                21          21
                22          22
                23          23
                24          24
                25          25
                26          26
                27          27
                28          28
                29          29
                30          30
                31          31
                32          32
                33          33
                34          34
                35          35
                36          36
                37          37
                38          38
                39          39
                40          40
                41          41
                42          42
                43          43
                44          44
                45          45
                46          46
                47          47
                48          48
                49          49
                50          50
                51          51
                52          52
                53          53
                54          54
                55          55
                56          56
                57          57
                58          58
                59          59
                60          60
                61          61
                62          62
                63          63
                64          64
                65          65
                66          66
                67          67
                68          68
                69          69
                70          70
                71          71
                72          72
                73          73
                74          74
                75          75
                76          76
                77          77
                78          78
                79          79
                80          80
                81          81
                82          82
                83          83
                84          84
                85          85
                86          86
                87          87
                88          88
                89          89
                90          90
                91          91
                92          92
                93          93
                94          94
                95          95
                96          96
                97          97
                98          98
                99          99
               100         100
               101         101
               102         102
               103         103
               104         104
               105         105
               106         106
               107         107
               108         108

----------------------------------------------------------------------------------------

 
 -----------------------------------------------------------------------------
|                                                                             |
|           W    W    AA    RRRRR   N    N  II  N    N   GGGG   !!!           |
|           W    W   A  A   R    R  NN   N  II  NN   N  G    G  !!!           |
|           W    W  A    A  R    R  N N  N  II  N N  N  G       !!!           |
|           W WW W  AAAAAA  RRRRR   N  N N  II  N  N N  G  GGG   !            |
|           WW  WW  A    A  R   R   N   NN  II  N   NN  G    G                |
|           W    W  A    A  R    R  N    N  II  N    N   GGGG   !!!           |
|                                                                             |
|     The requested file  could not be found or opened for reading            |
|     k-point information. Automatic k-point generation is used as a          |
|     fallback, which may lead to unwanted results.                           |
|                                                                             |
 -----------------------------------------------------------------------------

 

Automatic generation of k-mesh.
 Grid dimensions derived from KSPACING:
 generate k-points for:    2    1    1

 Generating k-lattice:

  Cartesian coordinates                     Fractional coordinates (reciprocal lattice)
    -0.000000000  0.056180421  0.000000000     0.500000000  0.000000000  0.000000000
    -0.056180421 -0.056180421  0.000000000     0.000000000  1.000000000  0.000000000
     0.000000000  0.000000000  0.028510346     0.000000000  0.000000000  1.000000000

  Length of vectors
     0.056180421  0.079451113  0.028510346

  Shift w.r.t. Gamma in fractional coordinates (k-lattice)
     0.000000000  0.000000000  0.000000000

 
 Subroutine IBZKPT returns following result:
 ===========================================
 
 Found      2 irreducible k-points:
 
 Following reciprocal coordinates:
            Coordinates               Weight
  0.000000  0.000000  0.000000      1.000000
  0.500000  0.000000  0.000000      1.000000
 
 Following cartesian coordinates:
            Coordinates               Weight
  0.000000  0.000000  0.000000      1.000000
 -0.000000  0.056180  0.000000      1.000000
 


--------------------------------------------------------------------------------------------------------




 Dimension of arrays:
   k-points           NKPTS =      2   k-points in BZ     NKDIM =      2   number of bands    NBANDS=    112
   number of dos      NEDOS =    301   number of ions     NIONS =    108
   non local maximal  LDIM  =      3   non local SUM 2l+1 LMDIM =      5
   total plane-waves  NPLWV = ******
   max r-space proj   IRMAX =   1369   max aug-charges    IRDMAX=   9283
   dimension x,y,z NGX =    64 NGY =   90 NGZ =  180
   dimension x,y,z NGXF=   128 NGYF=  180 NGZF=  360
   support grid    NGXF=   128 NGYF=  180 NGZF=  360
   ions per type =             108
   NGX,Y,Z   is equivalent  to a cutoff of   8.45,  8.41,  8.53 a.u.
   NGXF,Y,Z  is equivalent  to a cutoff of  16.91, 16.81, 17.06 a.u.

 SYSTEM =  unknown system                          
 POSCAR =  Na                                      

 Startparameter for this run:
   NWRITE =      1    write-flag & timer
   PREC   = normal    normal or accurate (medium, high low for compatibility)
   ISTART =      0    job   : 0-new  1-cont  2-samecut
   ICHARG =      2    charge: 1-file 2-atom 10-const
   ISPIN  =      1    spin polarized calculation?
   LNONCOLLINEAR =      F non collinear calculations
   LSORBIT =      F    spin-orbit coupling
   INIWAV =      1    electr: 0-lowe 1-rand  2-diag
   LASPH  =      T    aspherical Exc in radial PAW
 Electronic Relaxation 1
   ENCUT  =  400.0 eV  29.40 Ry    5.42 a.u.  20.53 29.03 57.20*2*pi/ulx,y,z
   ENINI  =  400.0     initial cutoff
   ENAUG  =  250.7 eV  augmentation charge cutoff
   NELM   =    150;   NELMIN=  2; NELMDL= -5     # of ELM steps 
   EDIFF  = 0.1E-07   stopping-criterion for ELM
   LREAL  =      T    real-space projection
   NLSPLINE    = F    spline interpolate recip. space projectors
   LCOMPAT=      F    compatible to vasp.4.4
   GGA_COMPAT  = T    GGA compatible to vasp.4.4-vasp.4.6
   LMAXPAW     = -100 max onsite density
   LMAXMIX     =    6 max onsite mixed and CHGCAR
   VOSKOWN=      0    Vosko Wilk Nusair interpolation
   ROPT   =   -0.00050
 Ionic relaxation
   EDIFFG = -.1E-01   stopping-criterion for IOM
   NSW    =    800    number of steps for IOM
   NBLOCK =      1;   KBLOCK =    800    inner block; outer block 
   IBRION =      2    ionic relax: 0-MD 1-quasi-New 2-CG
   NFREE  =      1    steps in history (QN), initial steepest desc. (CG)
   ISIF   =      2    stress and relaxation
   IWAVPR =     11    prediction:  0-non 1-charg 2-wave 3-comb
   ISYM   =      0    0-nonsym 1-usesym 2-fastsym
   LCORR  =      T    Harris-Foulkes like correction to forces

   POTIM  = 0.5000    time-step for ionic-motion
   TEIN   =    0.0    initial temperature
   TEBEG  =    0.0;   TEEND  =   0.0 temperature during run
   SMASS  =  -3.00    Nose mass-parameter (am)
   estimated Nose-frequenzy (Omega)   =  0.10E-29 period in steps = 0.13E+47 mass=  -0.362E-26a.u.
   SCALEE = 1.0000    scale energy and forces
   NPACO  =    256;   APACO  = 16.0  distance and # of slots for P.C.
   PSTRESS=    0.0 pullay stress

  Mass of Ions in am
   POMASS =  22.99
  Ionic Valenz
   ZVAL   =   1.00
  Atomic Wigner-Seitz radii
   RWIGS  =  -1.00
  virtual crystal weights 
   VCA    =   1.00
   NELECT =     108.0000    total number of electrons
   NUPDOWN=      -1.0000    fix difference up-down

 DOS related values:
   EMIN   =  10.00;   EMAX   =-10.00  energy-range for DOS
   EFERMI =   0.00
   ISMEAR =     0;   SIGMA  =   0.10  broadening in eV -4-tet -1-fermi 0-gaus

 Electronic relaxation 2 (details)
   IALGO  =     68    algorithm
   LDIAG  =      T    sub-space diagonalisation (order eigenvalues)
   LSUBROT=      F    optimize rotation matrix (better conditioning)
   TURBO    =      0    0=normal 1=particle mesh
   IRESTART =      0    0=no restart 2=restart with 2 vectors
   NREBOOT  =      0    no. of reboots
   NMIN     =      0    reboot dimension
   EREF     =   0.00    reference energy to select bands
   IMIX   =      4    mixing-type and parameters
     AMIX     =   0.40;   BMIX     =  1.00
     AMIX_MAG =   1.60;   BMIX_MAG =  1.00
     AMIN     =   0.01
     WC   =   100.;   INIMIX=   1;  MIXPRE=   1;  MAXMIX= -45

 Intra band minimization:
   WEIMIN = 0.0010     energy-eigenvalue tresh-hold
   EBREAK =  0.22E-10  absolut break condition
   DEPER  =   0.30     relativ break condition  

   TIME   =   0.40     timestep for ELM

  volume/ion in A,a.u.               =      51.45       347.19
  Fermi-wavevector in a.u.,A,eV,Ry     =   0.440166  0.831794  2.636081  0.193746
  Thomas-Fermi vector in A             =   1.414693
 
 Write flags
   LWAVE        =      F    write WAVECAR
   LDOWNSAMPLE  =      F    k-point downsampling of WAVECAR
   LCHARG       =      F    write CHGCAR
   LVTOT        =      F    write LOCPOT, total local potential
   LVHAR        =      F    write LOCPOT, Hartree potential only
   LELF         =      F    write electronic localiz. function (ELF)
   LORBIT       =      0    0 simple, 1 ext, 2 COOP (PROOUT), +10 PAW based schemes


 Dipole corrections
   LMONO  =      F    monopole corrections only (constant potential shift)
   LDIPOL =      T    correct potential (dipole corrections)
   IDIPOL =      3    1-x, 2-y, 3-z, 4-all directions 
   EPSILON=  1.0000000 bulk dielectric constant

 Exchange correlation treatment:
   GGA     =    PE    GGA type
   LEXCH   =     8    internal setting for exchange type
   VOSKOWN=      0    Vosko Wilk Nusair interpolation
   LHFCALC =     F    Hartree Fock is set to
   LHFONE  =     F    Hartree Fock one center treatment
   AEXX    =    0.0000 exact exchange contribution

 Linear response parameters
   LEPSILON=     F    determine dielectric tensor
   LRPA    =     F    only Hartree local field effects (RPA)
   LNABLA  =     F    use nabla operator in PAW spheres
   LVEL    =     F    velocity operator in full k-point grid
   LINTERFAST=   F  fast interpolation
   KINTER  =     0    interpolate to denser k-point grid
   CSHIFT  =0.1000    complex shift for real part using Kramers Kronig
   OMEGAMAX=  -1.0    maximum frequency
   DEG_THRESHOLD= 0.2000000E-02 threshold for treating states as degnerate
   RTIME   =   -0.100 relaxation time in fs
  (WPLASMAI=    0.000 imaginary part of plasma frequency in eV, 0.658/RTIME)
   DFIELD  = 0.0000000 0.0000000 0.0000000 field for delta impulse in time
 
 Orbital magnetization related:
   ORBITALMAG=     F  switch on orbital magnetization
   LCHIMAG   =     F  perturbation theory with respect to B field
   DQ        =  0.001000  dq finite difference perturbation B field
   LLRAUG    =     F  two centre corrections for induced B field



--------------------------------------------------------------------------------------------------------


 conjugate gradient relaxation of ions
 charge density and potential will be updated during run
 non-spin polarized calculation
 RMM-DIIS sequential band-by-band and
  variant of blocked Davidson during initial phase
 perform sub-space diagonalisation
    before iterative eigenvector-optimisation
 modified Broyden-mixing scheme, WC =      100.0
 initial mixing is a Kerker type mixing with AMIX =  0.4000 and BMIX =      1.0000
 Hartree-type preconditioning will be used
 using additional bands           58
 real space projection scheme for non local part
 use partial core corrections
 calculate Harris-corrections to forces 
   (improved forces if not selfconsistent)
 use gradient corrections 
 use of overlap-Matrix (Vanderbilt PP)
 Gauss-broadening in eV      SIGMA  =   0.10


--------------------------------------------------------------------------------------------------------


  energy-cutoff  :      400.00
  volume of cell :     5556.45
      direct lattice vectors                 reciprocal lattice vectors
    -8.899897720  8.899897720  0.000000000    -0.000000000  0.112360842  0.000000000
   -17.799795441 -0.000000000  0.000000000    -0.056180421 -0.056180421  0.000000000
     0.000000000  0.000000000 35.074986530     0.000000000  0.000000000  0.028510346

  length of vectors
    12.586356060 17.799795441 35.074986530     0.112360842  0.079451113  0.028510346


 
 k-points in units of 2pi/SCALE and weight: read from INCAR                         
   0.00000000  0.00000000  0.00000000       0.500
  -0.00000000  0.05618042  0.00000000       0.500
 
 k-points in reciprocal lattice and weights: read from INCAR                         
   0.00000000  0.00000000  0.00000000       0.500
   0.50000000  0.00000000  0.00000000       0.500
 
 position of ions in fractional coordinates (direct lattice) 
   0.00000000  0.00000003  0.23086898
   0.00000000  0.16666667  0.17106208
   0.00000000  0.00000003  0.35048277
   0.00000000  0.16666667  0.29067586
   0.00000000  0.00000003  0.47009656
   0.00000000  0.16666667  0.41028965
   0.00000000  0.00000003  0.58971035
   0.00000000  0.16666667  0.52990344
   0.00000000  0.00000003  0.70932414
   0.00000000  0.16666667  0.64951723
   0.00000000  0.00000003  0.82893792
   0.00000000  0.16666667  0.76913102
   0.33333333  0.00000003  0.23086898
   0.33333333  0.16666667  0.17106208
   0.33333333  0.00000003  0.35048277
   0.33333333  0.16666667  0.29067586
   0.33333333  0.00000003  0.47009656
   0.33333333  0.16666667  0.41028965
   0.33333333  0.00000003  0.58971035
   0.33333333  0.16666667  0.52990344
   0.33333333  0.00000003  0.70932414
   0.33333333  0.16666667  0.64951723
   0.33333333  0.00000003  0.82893792
   0.33333333  0.16666667  0.76913102
   0.00000000  0.33333337  0.23086898
   0.00000000  0.50000000  0.17106208
   0.00000000  0.33333337  0.35048277
   0.00000000  0.50000000  0.29067586
   0.00000000  0.33333337  0.47009656
   0.00000000  0.50000000  0.41028965
   0.00000000  0.33333337  0.58971035
   0.00000000  0.50000000  0.52990344
   0.00000000  0.33333337  0.70932414
   0.00000000  0.50000000  0.64951723
   0.00000000  0.33333337  0.82893792
   0.00000000  0.50000000  0.76913102
   0.66666667  0.00000003  0.23086898
   0.66666667  0.16666667  0.17106208
   0.66666667  0.00000003  0.35048277
   0.66666667  0.16666667  0.29067586
   0.66666667  0.00000003  0.47009656
   0.66666667  0.16666667  0.41028965
   0.66666667  0.00000003  0.58971035
   0.66666667  0.16666667  0.52990344
   0.66666667  0.00000003  0.70932414
   0.66666667  0.16666667  0.64951723
   0.66666667  0.00000003  0.82893792
   0.66666667  0.16666667  0.76913102
   0.33333333  0.33333337  0.23086898
   0.33333333  0.50000000  0.17106208
   0.33333333  0.33333337  0.35048277
   0.33333333  0.50000000  0.29067586
   0.33333333  0.33333337  0.47009656
   0.33333333  0.50000000  0.41028965
   0.33333333  0.33333337  0.58971035
   0.33333333  0.50000000  0.52990344
   0.33333333  0.33333337  0.70932414
   0.33333333  0.50000000  0.64951723
   0.33333333  0.33333337  0.82893792
   0.33333333  0.50000000  0.76913102
   0.00000000  0.66666670  0.23086898
   0.00000000  0.83333333  0.17106208
   0.00000000  0.66666670  0.35048277
   0.00000000  0.83333333  0.29067586
   0.00000000  0.66666670  0.47009656
   0.00000000  0.83333333  0.41028965
   0.00000000  0.66666670  0.58971035
   0.00000000  0.83333333  0.52990344
   0.00000000  0.66666670  0.70932414
   0.00000000  0.83333333  0.64951723
   0.00000000  0.66666670  0.82893792
   0.00000000  0.83333333  0.76913102
   0.66666667  0.33333337  0.23086898
   0.66666667  0.50000000  0.17106208
   0.66666667  0.33333337  0.35048277
   0.66666667  0.50000000  0.29067586
   0.66666667  0.33333337  0.47009656
   0.66666667  0.50000000  0.41028965
   0.66666667  0.33333337  0.58971035
   0.66666667  0.50000000  0.52990344
   0.66666667  0.33333337  0.70932414
   0.66666667  0.50000000  0.64951723
   0.66666667  0.33333337  0.82893792
   0.66666667  0.50000000  0.76913102
   0.33333333  0.66666670  0.23086898
   0.33333333  0.83333333  0.17106208
   0.33333333  0.66666670  0.35048277
   0.33333333  0.83333333  0.29067586
   0.33333333  0.66666670  0.47009656
   0.33333333  0.83333333  0.41028965
   0.33333333  0.66666670  0.58971035
   0.33333333  0.83333333  0.52990344
   0.33333333  0.66666670  0.70932414
   0.33333333  0.83333333  0.64951723
   0.33333333  0.66666670  0.82893792
   0.33333333  0.83333333  0.76913102
   0.66666667  0.66666670  0.23086898
   0.66666667  0.83333333  0.17106208
   0.66666667  0.66666670  0.35048277
   0.66666667  0.83333333  0.29067586
   0.66666667  0.66666670  0.47009656
   0.66666667  0.83333333  0.41028965
   0.66666667  0.66666670  0.58971035
   0.66666667  0.83333333  0.52990344
   0.66666667  0.66666670  0.70932414
   0.66666667  0.83333333  0.64951723
   0.66666667  0.66666670  0.82893792
   0.66666667  0.83333333  0.76913102
 
 position of ions in cartesian coordinates  (Angst):
  -0.00000059 -0.00000000  8.09772643
  -2.96663257 -0.00000000  6.00000000
  -0.00000059 -0.00000000 12.29317845
  -2.96663257 -0.00000000 10.19545202
  -0.00000059 -0.00000000 16.48863047
  -2.96663257 -0.00000000 14.39090404
  -0.00000059 -0.00000000 20.68408249
  -2.96663257 -0.00000000 18.58635606
  -0.00000059 -0.00000000 24.87953451
  -2.96663257 -0.00000000 22.78180808
  -0.00000059 -0.00000000 29.07498653
  -2.96663257 -0.00000000 26.97726010
  -2.96663317  2.96663257  8.09772643
  -5.93326515  2.96663257  6.00000000
  -2.96663317  2.96663257 12.29317845
  -5.93326515  2.96663257 10.19545202
  -2.96663317  2.96663257 16.48863047
  -5.93326515  2.96663257 14.39090404
  -2.96663317  2.96663257 20.68408249
  -5.93326515  2.96663257 18.58635606
  -2.96663317  2.96663257 24.87953451
  -5.93326515  2.96663257 22.78180808
  -2.96663317  2.96663257 29.07498653
  -5.93326515  2.96663257 26.97726010
  -5.93326574 -0.00000000  8.09772643
  -8.89989772 -0.00000000  6.00000000
  -5.93326574 -0.00000000 12.29317845
  -8.89989772 -0.00000000 10.19545202
  -5.93326574 -0.00000000 16.48863047
  -8.89989772 -0.00000000 14.39090404
  -5.93326574 -0.00000000 20.68408249
  -8.89989772 -0.00000000 18.58635606
  -5.93326574 -0.00000000 24.87953451
  -8.89989772 -0.00000000 22.78180808
  -5.93326574 -0.00000000 29.07498653
  -8.89989772 -0.00000000 26.97726010
  -5.93326574  5.93326515  8.09772643
  -8.89989772  5.93326515  6.00000000
  -5.93326574  5.93326515 12.29317845
  -8.89989772  5.93326515 10.19545202
  -5.93326574  5.93326515 16.48863047
  -8.89989772  5.93326515 14.39090404
  -5.93326574  5.93326515 20.68408249
  -8.89989772  5.93326515 18.58635606
  -5.93326574  5.93326515 24.87953451
  -8.89989772  5.93326515 22.78180808
  -5.93326574  5.93326515 29.07498653
  -8.89989772  5.93326515 26.97726010
  -8.89989831  2.96663257  8.09772643
 -11.86653029  2.96663257  6.00000000
  -8.89989831  2.96663257 12.29317845
 -11.86653029  2.96663257 10.19545202
  -8.89989831  2.96663257 16.48863047
 -11.86653029  2.96663257 14.39090404
  -8.89989831  2.96663257 20.68408249
 -11.86653029  2.96663257 18.58635606
  -8.89989831  2.96663257 24.87953451
 -11.86653029  2.96663257 22.78180808
  -8.89989831  2.96663257 29.07498653
 -11.86653029  2.96663257 26.97726010
 -11.86653089 -0.00000000  8.09772643
 -14.83316287 -0.00000000  6.00000000
 -11.86653089 -0.00000000 12.29317845
 -14.83316287 -0.00000000 10.19545202
 -11.86653089 -0.00000000 16.48863047
 -14.83316287 -0.00000000 14.39090404
 -11.86653089 -0.00000000 20.68408249
 -14.83316287 -0.00000000 18.58635606
 -11.86653089 -0.00000000 24.87953451
 -14.83316287 -0.00000000 22.78180808
 -11.86653089 -0.00000000 29.07498653
 -14.83316287 -0.00000000 26.97726010
 -11.86653089  5.93326515  8.09772643
 -14.83316287  5.93326515  6.00000000
 -11.86653089  5.93326515 12.29317845
 -14.83316287  5.93326515 10.19545202
 -11.86653089  5.93326515 16.48863047
 -14.83316287  5.93326515 14.39090404
 -11.86653089  5.93326515 20.68408249
 -14.83316287  5.93326515 18.58635606
 -11.86653089  5.93326515 24.87953451
 -14.83316287  5.93326515 22.78180808
 -11.86653089  5.93326515 29.07498653
 -14.83316287  5.93326515 26.97726010
 -14.83316346  2.96663257  8.09772643
 -17.79979544  2.96663257  6.00000000
 -14.83316346  2.96663257 12.29317845
 -17.79979544  2.96663257 10.19545202
 -14.83316346  2.96663257 16.48863047
 -17.79979544  2.96663257 14.39090404
 -14.83316346  2.96663257 20.68408249
 -17.79979544  2.96663257 18.58635606
 -14.83316346  2.96663257 24.87953451
 -17.79979544  2.96663257 22.78180808
 -14.83316346  2.96663257 29.07498653
 -17.79979544  2.96663257 26.97726010
 -17.79979603  5.93326515  8.09772643
 -20.76642801  5.93326515  6.00000000
 -17.79979603  5.93326515 12.29317845
 -20.76642801  5.93326515 10.19545202
 -17.79979603  5.93326515 16.48863047
 -20.76642801  5.93326515 14.39090404
 -17.79979603  5.93326515 20.68408249
 -20.76642801  5.93326515 18.58635606
 -17.79979603  5.93326515 24.87953451
 -20.76642801  5.93326515 22.78180808
 -17.79979603  5.93326515 29.07498653
 -20.76642801  5.93326515 26.97726010
 


--------------------------------------------------------------------------------------------------------


 k-point   1 :   0.0000 0.0000 0.0000  plane waves:  100923
 k-point   2 :   0.5000 0.0000 0.0000  plane waves:  100756

 maximum and minimum number of plane-waves per node :      6338     6280

 maximum number of plane-waves:    100923
 maximum index in each direction: 
   IXMAX=   20   IYMAX=   29   IZMAX=   57
   IXMIN=  -21   IYMIN=  -29   IZMIN=  -57


 real space projection operators:
  total allocation   :       5413.59 KBytes
  max/ min on nodes  :        354.84        321.56


 parallel 3D FFT for wavefunctions:
    minimum data exchange during FFTs selected (reduces bandwidth)
 parallel 3D FFT for charge:
    minimum data exchange during FFTs selected (reduces bandwidth)


 total amount of memory used by VASP MPI-rank0    45724. kBytes
=======================================================================

   base      :      30000. kBytes
   nonlr-proj:       2892. kBytes
   fftplans  :       4263. kBytes
   grid      :       5723. kBytes
   one-center:          8. kBytes
   wavefun   :       2838. kBytes
 
     INWAV:  cpu time    0.0001: real time    0.0001
 Broyden mixing: mesh for mixing (old mesh)
   NGX = 41   NGY = 59   NGZ =115
  (NGX  =128   NGY  =180   NGZ  =360)
  gives a total of 278185 points

 initial charge density was supplied:
 charge density of overlapping atoms calculated
 number of electron     108.0000000 magnetization 
 keeping initial charge density in first step


--------------------------------------------------------------------------------------------------------


 Maximum index for non-local projection operator          112
 Maximum index for augmentation-charges          415 (set IRDMAX)


--------------------------------------------------------------------------------------------------------


 First call to EWALD:  gamma=   0.100
 Maximum number of real-space cells 5x 4x 2
 Maximum number of reciprocal cells 2x 3x 5

    FEWALD:  cpu time    0.0041: real time    0.0041


--------------------------------------- Iteration      1(   1)  ---------------------------------------


    POTLOK:  cpu time    0.0497: real time    0.0635
    SETDIJ:  cpu time    0.0459: real time    0.0463
     EDDAV:  cpu time    1.1837: real time    1.1962
       DOS:  cpu time    0.0058: real time    0.0062
    --------------------------------------------
      LOOP:  cpu time    1.2852: real time    1.3123

 eigenvalue-minimisations  :   448
 total energy-change (2. order) : 0.2769558E+01  (-0.1778384E+04)
 number of electron     108.0000000 magnetization 
 augmentation part      108.0000000 magnetization 

 DIPCOR: dipole corrections for dipol
 direction  3 min pos     1,
 dipolmoment           0.000000      0.000000      0.000000 electrons x Angstroem
 Tr[quadrupol]     -4009.166696

 energy correction for charged system         0.000000 eV
 dipol+quadrupol energy correction           -0.000000 eV
 added-field ion interaction         -0.000000 eV  (added to PSCEN)


 Free energy of the ion-electron system (eV)
  ---------------------------------------------------
  alpha Z        PSCENC =       -38.44870321
  Ewald energy   TEWEN  =       908.66800710
  -Hartree energ DENC   =     -1454.57130432
  -exchange      EXHF   =         0.00000000
  -V(xc)+E(xc)   XCENC  =     -3952.00757421
  PAW double counting   =      4306.62377697     -255.70647382
  entropy T*S    EENTRO =        -0.12701333
  eigenvalues    EBANDS =       -68.73049838
  atomic energy  EATOM  =       557.06934077
  Solvation  Ediel_sol  =         0.00000000
  ---------------------------------------------------
  free energy    TOTEN  =         2.76955756 eV

  energy without entropy =        2.89657090  energy(sigma->0) =        2.83306423


--------------------------------------------------------------------------------------------------------




--------------------------------------- Iteration      1(   2)  ---------------------------------------


     EDDAV:  cpu time    1.3806: real time    1.3906
       DOS:  cpu time    0.0010: real time    0.0010
    --------------------------------------------
      LOOP:  cpu time    1.3816: real time    1.3916

 eigenvalue-minimisations  :   512
 total energy-change (2. order) :-0.1350380E+03  (-0.1246289E+03)
 number of electron     108.0000000 magnetization 
 augmentation part      108.0000000 magnetization 

 DIPCOR: dipole corrections for dipol
 direction  3 min pos     1,
 dipolmoment           0.000000      0.000000      0.000000 electrons x Angstroem
 Tr[quadrupol]     -4009.166696

 energy correction for charged system         0.000000 eV
 dipol+quadrupol energy correction           -0.000000 eV
 added-field ion interaction         -0.000000 eV  (added to PSCEN)


 Free energy of the ion-electron system (eV)
  ---------------------------------------------------
  alpha Z        PSCENC =       -38.44870321
  Ewald energy   TEWEN  =       908.66800710
  -Hartree energ DENC   =     -1454.57130432
  -exchange      EXHF   =         0.00000000
  -V(xc)+E(xc)   XCENC  =     -3952.00757421
  PAW double counting   =      4306.62377697     -255.70647382
  entropy T*S    EENTRO =        -0.23031934
  eigenvalues    EBANDS =      -203.66518474
  atomic energy  EATOM  =       557.06934077
  Solvation  Ediel_sol  =         0.00000000
  ---------------------------------------------------
  free energy    TOTEN  =      -132.26843480 eV

  energy without entropy =     -132.03811546  energy(sigma->0) =     -132.15327513


--------------------------------------------------------------------------------------------------------




--------------------------------------- Iteration      1(   3)  ---------------------------------------


     EDDAV:  cpu time    1.6959: real time    1.7035
       DOS:  cpu time    0.0038: real time    0.0038
    --------------------------------------------
      LOOP:  cpu time    1.6997: real time    1.7072

 eigenvalue-minimisations  :   584
 total energy-change (2. order) :-0.9412566E+01  (-0.8873850E+01)
 number of electron     108.0000000 magnetization 
 augmentation part      108.0000000 magnetization 

 DIPCOR: dipole corrections for dipol
 direction  3 min pos     1,
 dipolmoment           0.000000      0.000000      0.000000 electrons x Angstroem
 Tr[quadrupol]     -4009.166696

 energy correction for charged system         0.000000 eV
 dipol+quadrupol energy correction           -0.000000 eV
 added-field ion interaction         -0.000000 eV  (added to PSCEN)


 Free energy of the ion-electron system (eV)
  ---------------------------------------------------
  alpha Z        PSCENC =       -38.44870321
  Ewald energy   TEWEN  =       908.66800710
  -Hartree energ DENC   =     -1454.57130432
  -exchange      EXHF   =         0.00000000
  -V(xc)+E(xc)   XCENC  =     -3952.00757421
  PAW double counting   =      4306.62377697     -255.70647382
  entropy T*S    EENTRO =        -0.30716518
  eigenvalues    EBANDS =      -213.00090444
  atomic energy  EATOM  =       557.06934077
  Solvation  Ediel_sol  =         0.00000000
  ---------------------------------------------------
  free energy    TOTEN  =      -141.68100034 eV

  energy without entropy =     -141.37383516  energy(sigma->0) =     -141.52741775


--------------------------------------------------------------------------------------------------------




--------------------------------------- Iteration      1(   4)  ---------------------------------------


     EDDAV:  cpu time    1.6519: real time    1.6576
       DOS:  cpu time    0.0010: real time    0.0010
    --------------------------------------------
      LOOP:  cpu time    1.6529: real time    1.6586

 eigenvalue-minimisations  :   688
 total energy-change (2. order) :-0.5095646E+00  (-0.5071786E+00)
 number of electron     108.0000000 magnetization 
 augmentation part      108.0000000 magnetization 

 DIPCOR: dipole corrections for dipol
 direction  3 min pos     1,
 dipolmoment           0.000000      0.000000      0.000000 electrons x Angstroem
 Tr[quadrupol]     -4009.166696

 energy correction for charged system         0.000000 eV
 dipol+quadrupol energy correction           -0.000000 eV
 added-field ion interaction         -0.000000 eV  (added to PSCEN)


 Free energy of the ion-electron system (eV)
  ---------------------------------------------------
  alpha Z        PSCENC =       -38.44870321
  Ewald energy   TEWEN  =       908.66800710
  -Hartree energ DENC   =     -1454.57130432
  -exchange      EXHF   =         0.00000000
  -V(xc)+E(xc)   XCENC  =     -3952.00757421
  PAW double counting   =      4306.62377697     -255.70647382
  entropy T*S    EENTRO =        -0.30757017
  eigenvalues    EBANDS =      -213.51006402
  atomic energy  EATOM  =       557.06934077
  Solvation  Ediel_sol  =         0.00000000
  ---------------------------------------------------
  free energy    TOTEN  =      -142.19056491 eV

  energy without entropy =     -141.88299474  energy(sigma->0) =     -142.03677983


--------------------------------------------------------------------------------------------------------




--------------------------------------- Iteration      1(   5)  ---------------------------------------


     EDDAV:  cpu time    1.7290: real time    1.7861
       DOS:  cpu time    0.0007: real time    0.0007
    CHARGE:  cpu time    0.0497: real time    0.0507
    MIXING:  cpu time    0.0048: real time    0.0062
    --------------------------------------------
      LOOP:  cpu time    1.7841: real time    1.8438

 eigenvalue-minimisations  :   712
 total energy-change (2. order) :-0.3587119E-01  (-0.3586424E-01)
 number of electron     108.0000000 magnetization 
 augmentation part        0.7916039 magnetization 

 DIPCOR: dipole corrections for dipol
 direction  3 min pos     1,
 dipolmoment           0.000000      0.000000      0.000000 electrons x Angstroem
 Tr[quadrupol]     -4009.166696

 energy correction for charged system         0.000000 eV
 dipol+quadrupol energy correction           -0.000000 eV
 added-field ion interaction         -0.000000 eV  (added to PSCEN)


 Broyden mixing:
  rms(total) = 0.32959E+00    rms(broyden)= 0.32959E+00
  rms(prec ) = 0.67637E+00
  weight for this iteration     100.00

 Free energy of the ion-electron system (eV)
  ---------------------------------------------------
  alpha Z        PSCENC =       -38.44870321
  Ewald energy   TEWEN  =       908.66800710
  -Hartree energ DENC   =     -1454.57130432
  -exchange      EXHF   =         0.00000000
  -V(xc)+E(xc)   XCENC  =     -3952.00757421
  PAW double counting   =      4306.62377697     -255.70647382
  entropy T*S    EENTRO =        -0.30761180
  eigenvalues    EBANDS =      -213.54589358
  atomic energy  EATOM  =       557.06934077
  Solvation  Ediel_sol  =         0.00000000
  ---------------------------------------------------
  free energy    TOTEN  =      -142.22643610 eV

  energy without entropy =     -141.91882430  energy(sigma->0) =     -142.07263020


--------------------------------------------------------------------------------------------------------




--------------------------------------- Iteration      1(   6)  ---------------------------------------


    POTLOK:  cpu time    0.0507: real time    0.0507
    SETDIJ:  cpu time    0.0493: real time    0.0493
    EDDIAG:  cpu time    0.2038: real time    0.2050
  RMM-DIIS:  cpu time    0.5590: real time    0.5708
    ORTHCH:  cpu time    0.0403: real time    0.0403
       DOS:  cpu time    0.0038: real time    0.0040
    CHARGE:  cpu time    0.0524: real time    0.0536
    MIXING:  cpu time    0.0031: real time    0.0035
    --------------------------------------------
      LOOP:  cpu time    0.9625: real time    0.9772

 eigenvalue-minimisations  :   448
 total energy-change (2. order) : 0.1905838E+01  (-0.5294852E-01)
 number of electron     108.0000000 magnetization 
 augmentation part        0.7811266 magnetization 

 DIPCOR: dipole corrections for dipol
 direction  3 min pos     1,
 dipolmoment           0.000000      0.000000     -0.000014 electrons x Angstroem
 Tr[quadrupol]     -4012.274070

 energy correction for charged system         0.000000 eV
 dipol+quadrupol energy correction           -0.000000 eV
 added-field ion interaction         -0.000000 eV  (added to PSCEN)


 Broyden mixing:
  rms(total) = 0.21533E+00    rms(broyden)= 0.21533E+00
  rms(prec ) = 0.43171E+00
  weight for this iteration     100.00

 eigenvalues of (default mixing * dielectric matrix)
  average eigenvalue GAMMA=   2.4338
  2.4338

 Free energy of the ion-electron system (eV)
  ---------------------------------------------------
  alpha Z        PSCENC =       -38.44870321
  Ewald energy   TEWEN  =       908.66800710
  -Hartree energ DENC   =     -1460.94362479
  -exchange      EXHF   =         0.00000000
  -V(xc)+E(xc)   XCENC  =     -3949.90322795
  PAW double counting   =      4287.33313774     -236.51756356
  entropy T*S    EENTRO =        -0.32269089
  eigenvalues    EBANDS =      -207.25527376
  atomic energy  EATOM  =       557.06934077
  Solvation  Ediel_sol  =         0.00000000
  ---------------------------------------------------
  free energy    TOTEN  =      -140.32059856 eV

  energy without entropy =     -139.99790767  energy(sigma->0) =     -140.15925312


--------------------------------------------------------------------------------------------------------




--------------------------------------- Iteration      1(   7)  ---------------------------------------


    POTLOK:  cpu time    0.0605: real time    0.0674
    SETDIJ:  cpu time    0.0539: real time    0.0539
    EDDIAG:  cpu time    0.2068: real time    0.2070
  RMM-DIIS:  cpu time    0.5010: real time    0.5022
    ORTHCH:  cpu time    0.0347: real time    0.0346
       DOS:  cpu time    0.0044: real time    0.0044
    CHARGE:  cpu time    0.0475: real time    0.0475
    MIXING:  cpu time    0.0016: real time    0.0016
    --------------------------------------------
      LOOP:  cpu time    0.9105: real time    0.9188

 eigenvalue-minimisations  :   461
 total energy-change (2. order) : 0.1403202E+01  (-0.2441618E+00)
 number of electron     108.0000000 magnetization 
 augmentation part        0.7649464 magnetization 

 DIPCOR: dipole corrections for dipol
 direction  3 min pos     1,
 dipolmoment           0.000000      0.000000      0.000019 electrons x Angstroem
 Tr[quadrupol]     -4020.896703

 energy correction for charged system         0.000000 eV
 dipol+quadrupol energy correction           -0.000000 eV
 added-field ion interaction          0.000000 eV  (added to PSCEN)


 Broyden mixing:
  rms(total) = 0.83342E-01    rms(broyden)= 0.83342E-01
  rms(prec ) = 0.14675E+00
  weight for this iteration     100.00

 eigenvalues of (default mixing * dielectric matrix)
  average eigenvalue GAMMA=   2.1729
  2.1729  2.1729

 Free energy of the ion-electron system (eV)
  ---------------------------------------------------
  alpha Z        PSCENC =       -38.44870321
  Ewald energy   TEWEN  =       908.66800710
  -Hartree energ DENC   =     -1473.69818819
  -exchange      EXHF   =         0.00000000
  -V(xc)+E(xc)   XCENC  =     -3946.11619936
  PAW double counting   =      4261.21390555     -210.56470777
  entropy T*S    EENTRO =        -0.31511088
  eigenvalues    EBANDS =      -196.72574096
  atomic energy  EATOM  =       557.06934077
  Solvation  Ediel_sol  =         0.00000000
  ---------------------------------------------------
  free energy    TOTEN  =      -138.91739694 eV

  energy without entropy =     -138.60228606  energy(sigma->0) =     -138.75984150


--------------------------------------------------------------------------------------------------------




--------------------------------------- Iteration      1(   8)  ---------------------------------------


    POTLOK:  cpu time    0.0555: real time    0.0556
    SETDIJ:  cpu time    0.0495: real time    0.0494
    EDDIAG:  cpu time    0.2058: real time    0.2058
  RMM-DIIS:  cpu time    0.5032: real time    0.5053
    ORTHCH:  cpu time    0.0345: real time    0.0345
       DOS:  cpu time    0.0007: real time    0.0007
    CHARGE:  cpu time    0.1058: real time    0.1611
    MIXING:  cpu time    0.0079: real time    0.0079
    --------------------------------------------
      LOOP:  cpu time    0.9630: real time    1.0203

 eigenvalue-minimisations  :   449
 total energy-change (2. order) : 0.2115334E+00  (-0.2703347E-01)
 number of electron     108.0000000 magnetization 
 augmentation part        0.7649335 magnetization 

 DIPCOR: dipole corrections for dipol
 direction  3 min pos     1,
 dipolmoment           0.000000      0.000000      0.000004 electrons x Angstroem
 Tr[quadrupol]     -4028.400544

 energy correction for charged system         0.000000 eV
 dipol+quadrupol energy correction           -0.000000 eV
 added-field ion interaction         -0.000000 eV  (added to PSCEN)


 Broyden mixing:
  rms(total) = 0.52145E-01    rms(broyden)= 0.52145E-01
  rms(prec ) = 0.12009E+00
  weight for this iteration     100.00

 eigenvalues of (default mixing * dielectric matrix)
  average eigenvalue GAMMA=   2.1864
  1.2965  2.9708  2.2919

 Free energy of the ion-electron system (eV)
  ---------------------------------------------------
  alpha Z        PSCENC =       -38.44870321
  Ewald energy   TEWEN  =       908.66800710
  -Hartree energ DENC   =     -1478.71357336
  -exchange      EXHF   =         0.00000000
  -V(xc)+E(xc)   XCENC  =     -3945.24191270
  PAW double counting   =      4256.98481862     -206.34352375
  entropy T*S    EENTRO =        -0.31537868
  eigenvalues    EBANDS =      -192.36493829
  atomic energy  EATOM  =       557.06934077
  Solvation  Ediel_sol  =         0.00000000
  ---------------------------------------------------
  free energy    TOTEN  =      -138.70586351 eV

  energy without entropy =     -138.39048483  energy(sigma->0) =     -138.54817417


--------------------------------------------------------------------------------------------------------




--------------------------------------- Iteration      1(   9)  ---------------------------------------


    POTLOK:  cpu time    0.0511: real time    0.0512
    SETDIJ:  cpu time    0.0451: real time    0.0451
    EDDIAG:  cpu time    0.2041: real time    0.2042
  RMM-DIIS:  cpu time    0.5051: real time    0.5108
    ORTHCH:  cpu time    0.0344: real time    0.0344
       DOS:  cpu time    0.0005: real time    0.0005
    CHARGE:  cpu time    0.0501: real time    0.0501
    MIXING:  cpu time    0.0015: real time    0.0015
    --------------------------------------------
      LOOP:  cpu time    0.8919: real time    0.8977

 eigenvalue-minimisations  :   448
 total energy-change (2. order) : 0.1481139E+00  (-0.1647346E-01)
 number of electron     108.0000000 magnetization 
 augmentation part        0.7630659 magnetization 

 DIPCOR: dipole corrections for dipol
 direction  3 min pos     1,
 dipolmoment           0.000000      0.000000      0.000046 electrons x Angstroem
 Tr[quadrupol]     -4038.844040

 energy correction for charged system         0.000000 eV
 dipol+quadrupol energy correction           -0.000000 eV
 added-field ion interaction          0.000000 eV  (added to PSCEN)


 Broyden mixing:
  rms(total) = 0.50188E-01    rms(broyden)= 0.50188E-01
  rms(prec ) = 0.92700E-01
  weight for this iteration     100.00

 eigenvalues of (default mixing * dielectric matrix)
  average eigenvalue GAMMA=   2.0569
  2.9252  2.9252  1.5443  0.8328

 Free energy of the ion-electron system (eV)
  ---------------------------------------------------
  alpha Z        PSCENC =       -38.44870321
  Ewald energy   TEWEN  =       908.66800710
  -Hartree energ DENC   =     -1485.11279462
  -exchange      EXHF   =         0.00000000
  -V(xc)+E(xc)   XCENC  =     -3944.51198712
  PAW double counting   =      4254.31099569     -203.67841642
  entropy T*S    EENTRO =        -0.31901600
  eigenvalues    EBANDS =      -186.53517583
  atomic energy  EATOM  =       557.06934077
  Solvation  Ediel_sol  =         0.00000000
  ---------------------------------------------------
  free energy    TOTEN  =      -138.55774965 eV

  energy without entropy =     -138.23873365  energy(sigma->0) =     -138.39824165


--------------------------------------------------------------------------------------------------------




--------------------------------------- Iteration      1(  10)  ---------------------------------------


    POTLOK:  cpu time    0.0507: real time    0.0507
    SETDIJ:  cpu time    0.0451: real time    0.0451
    EDDIAG:  cpu time    0.2433: real time    0.2433
  RMM-DIIS:  cpu time    0.5321: real time    0.5362
    ORTHCH:  cpu time    0.0330: real time    0.0330
       DOS:  cpu time    0.0006: real time    0.0006
    CHARGE:  cpu time    0.0503: real time    0.0503
    MIXING:  cpu time    0.0015: real time    0.0015
    --------------------------------------------
      LOOP:  cpu time    0.9566: real time    0.9607

 eigenvalue-minimisations  :   448
 total energy-change (2. order) : 0.1174307E+00  (-0.9993683E-02)
 number of electron     108.0000000 magnetization 
 augmentation part        0.7637534 magnetization 

 DIPCOR: dipole corrections for dipol
 direction  3 min pos     1,
 dipolmoment           0.000000      0.000000      0.000018 electrons x Angstroem
 Tr[quadrupol]     -4057.221563

 energy correction for charged system         0.000000 eV
 dipol+quadrupol energy correction           -0.000000 eV
 added-field ion interaction         -0.000000 eV  (added to PSCEN)


 Broyden mixing:
  rms(total) = 0.26075E-01    rms(broyden)= 0.26075E-01
  rms(prec ) = 0.63995E-01
  weight for this iteration     100.00

 eigenvalues of (default mixing * dielectric matrix)
  average eigenvalue GAMMA=   2.3063
  3.6419  3.6419  1.0215  1.6130  1.6130

 Free energy of the ion-electron system (eV)
  ---------------------------------------------------
  alpha Z        PSCENC =       -38.44870321
  Ewald energy   TEWEN  =       908.66800710
  -Hartree energ DENC   =     -1492.17244544
  -exchange      EXHF   =         0.00000000
  -V(xc)+E(xc)   XCENC  =     -3945.10326469
  PAW double counting   =      4260.30880565     -209.63550017
  entropy T*S    EENTRO =        -0.32384209
  eigenvalues    EBANDS =      -178.80271688
  atomic energy  EATOM  =       557.06934077
  Solvation  Ediel_sol  =         0.00000000
  ---------------------------------------------------
  free energy    TOTEN  =      -138.44031896 eV

  energy without entropy =     -138.11647686  energy(sigma->0) =     -138.27839791


--------------------------------------------------------------------------------------------------------




--------------------------------------- Iteration      1(  11)  ---------------------------------------


    POTLOK:  cpu time    0.0503: real time    0.0503
    SETDIJ:  cpu time    0.0454: real time    0.0454
    EDDIAG:  cpu time    0.4980: real time    0.5016
  RMM-DIIS:  cpu time    0.4930: real time    0.4980
    ORTHCH:  cpu time    0.0371: real time    0.0371
       DOS:  cpu time    0.0005: real time    0.0005
    CHARGE:  cpu time    0.0510: real time    0.0510
    MIXING:  cpu time    0.0016: real time    0.0016
    --------------------------------------------
      LOOP:  cpu time    1.1769: real time    1.1855

 eigenvalue-minimisations  :   450
 total energy-change (2. order) : 0.1171038E+00  (-0.1252538E-01)
 number of electron     108.0000000 magnetization 
 augmentation part        0.7622619 magnetization 

 DIPCOR: dipole corrections for dipol
 direction  3 min pos     1,
 dipolmoment           0.000000      0.000000     -0.000002 electrons x Angstroem
 Tr[quadrupol]     -4078.351155

 energy correction for charged system         0.000000 eV
 dipol+quadrupol energy correction           -0.000000 eV
 added-field ion interaction         -0.000000 eV  (added to PSCEN)


 Broyden mixing:
  rms(total) = 0.25604E-01    rms(broyden)= 0.25604E-01
  rms(prec ) = 0.44223E-01
  weight for this iteration     100.00

 eigenvalues of (default mixing * dielectric matrix)
  average eigenvalue GAMMA=   2.4145
  4.1111  4.1111  2.5100  1.6706  1.2005  0.8839

 Free energy of the ion-electron system (eV)
  ---------------------------------------------------
  alpha Z        PSCENC =       -38.44870321
  Ewald energy   TEWEN  =       908.66800710
  -Hartree energ DENC   =     -1501.32782708
  -exchange      EXHF   =         0.00000000
  -V(xc)+E(xc)   XCENC  =     -3945.07025054
  PAW double counting   =      4260.94594828     -210.26925253
  entropy T*S    EENTRO =        -0.32715115
  eigenvalues    EBANDS =      -169.56332683
  atomic energy  EATOM  =       557.06934077
  Solvation  Ediel_sol  =         0.00000000
  ---------------------------------------------------
  free energy    TOTEN  =      -138.32321519 eV

  energy without entropy =     -137.99606404  energy(sigma->0) =     -138.15963961


--------------------------------------------------------------------------------------------------------




--------------------------------------- Iteration      1(  12)  ---------------------------------------


    POTLOK:  cpu time    0.0503: real time    0.0503
    SETDIJ:  cpu time    0.0451: real time    0.0451
    EDDIAG:  cpu time    0.2049: real time    0.2052
  RMM-DIIS:  cpu time    0.5018: real time    0.5061
    ORTHCH:  cpu time    0.0360: real time    0.0360
       DOS:  cpu time    0.0006: real time    0.0006
    CHARGE:  cpu time    0.0515: real time    0.0515
    MIXING:  cpu time    0.0017: real time    0.0017
    --------------------------------------------
      LOOP:  cpu time    0.8919: real time    0.8965

 eigenvalue-minimisations  :   458
 total energy-change (2. order) :-0.4940451E-01  (-0.7742560E-02)
 number of electron     108.0000000 magnetization 
 augmentation part        0.7596470 magnetization 

 DIPCOR: dipole corrections for dipol
 direction  3 min pos     1,
 dipolmoment           0.000000      0.000000     -0.000015 electrons x Angstroem
 Tr[quadrupol]     -4086.772524

 energy correction for charged system         0.000000 eV
 dipol+quadrupol energy correction           -0.000000 eV
 added-field ion interaction         -0.000000 eV  (added to PSCEN)


 Broyden mixing:
  rms(total) = 0.19773E-01    rms(broyden)= 0.19773E-01
  rms(prec ) = 0.31933E-01
  weight for this iteration     100.00

 eigenvalues of (default mixing * dielectric matrix)
  average eigenvalue GAMMA=   2.9378
  6.1871  6.1871  2.6069  2.1095  1.5800  0.9470  0.9470

 Free energy of the ion-electron system (eV)
  ---------------------------------------------------
  alpha Z        PSCENC =       -38.44870321
  Ewald energy   TEWEN  =       908.66800710
  -Hartree energ DENC   =     -1504.77062174
  -exchange      EXHF   =         0.00000000
  -V(xc)+E(xc)   XCENC  =     -3945.00982674
  PAW double counting   =      4258.71466916     -208.05270795
  entropy T*S    EENTRO =        -0.32652452
  eigenvalues    EBANDS =      -166.21625255
  atomic energy  EATOM  =       557.06934077
  Solvation  Ediel_sol  =         0.00000000
  ---------------------------------------------------
  free energy    TOTEN  =      -138.37261969 eV

  energy without entropy =     -138.04609517  energy(sigma->0) =     -138.20935743


--------------------------------------------------------------------------------------------------------




--------------------------------------- Iteration      1(  13)  ---------------------------------------


    POTLOK:  cpu time    0.0495: real time    0.0495
    SETDIJ:  cpu time    0.0450: real time    0.0450
    EDDIAG:  cpu time    0.2027: real time    0.2027
  RMM-DIIS:  cpu time    0.5417: real time    0.5468
    ORTHCH:  cpu time    0.0356: real time    0.0356
       DOS:  cpu time    0.0006: real time    0.0006
    CHARGE:  cpu time    0.0492: real time    0.0492
    MIXING:  cpu time    0.0016: real time    0.0016
    --------------------------------------------
      LOOP:  cpu time    0.9258: real time    0.9309

 eigenvalue-minimisations  :   448
 total energy-change (2. order) :-0.4733571E-01  (-0.3053418E-02)
 number of electron     108.0000000 magnetization 
 augmentation part        0.7613969 magnetization 

 DIPCOR: dipole corrections for dipol
 direction  3 min pos     1,
 dipolmoment           0.000000      0.000000      0.000005 electrons x Angstroem
 Tr[quadrupol]     -4087.539340

 energy correction for charged system         0.000000 eV
 dipol+quadrupol energy correction           -0.000000 eV
 added-field ion interaction         -0.000000 eV  (added to PSCEN)


 Broyden mixing:
  rms(total) = 0.96721E-02    rms(broyden)= 0.96721E-02
  rms(prec ) = 0.22423E-01
  weight for this iteration     100.00

 eigenvalues of (default mixing * dielectric matrix)
  average eigenvalue GAMMA=   3.1001
  8.8029  6.1061  3.0532  1.9308  1.8323  0.9292  1.0733  1.0733

 Free energy of the ion-electron system (eV)
  ---------------------------------------------------
  alpha Z        PSCENC =       -38.44870321
  Ewald energy   TEWEN  =       908.66800710
  -Hartree energ DENC   =     -1504.04264304
  -exchange      EXHF   =         0.00000000
  -V(xc)+E(xc)   XCENC  =     -3945.16274233
  PAW double counting   =      4259.21805092     -208.54415465
  entropy T*S    EENTRO =        -0.32794045
  eigenvalues    EBANDS =      -166.84917051
  atomic energy  EATOM  =       557.06934077
  Solvation  Ediel_sol  =         0.00000000
  ---------------------------------------------------
  free energy    TOTEN  =      -138.41995540 eV

  energy without entropy =     -138.09201495  energy(sigma->0) =     -138.25598518


--------------------------------------------------------------------------------------------------------




--------------------------------------- Iteration      1(  14)  ---------------------------------------


    POTLOK:  cpu time    0.0492: real time    0.0493
    SETDIJ:  cpu time    0.0448: real time    0.0448
    EDDIAG:  cpu time    0.2015: real time    0.2017
  RMM-DIIS:  cpu time    0.5264: real time    0.5264
    ORTHCH:  cpu time    0.0349: real time    0.0349
       DOS:  cpu time    0.0005: real time    0.0005
    CHARGE:  cpu time    0.0454: real time    0.0504
    MIXING:  cpu time    0.0018: real time    0.0018
    --------------------------------------------
      LOOP:  cpu time    0.9046: real time    0.9098

 eigenvalue-minimisations  :   448
 total energy-change (2. order) :-0.7351502E-02  (-0.1353208E-02)
 number of electron     108.0000000 magnetization 
 augmentation part        0.7602777 magnetization 

 DIPCOR: dipole corrections for dipol
 direction  3 min pos     1,
[...]
   0.125E-01 -.422E-02 0.136E+02   -.762E-02 0.340E-02 -.136E+02   -.201E-02 0.423E-03 -.890E-02   0.170E-06 0.498E-05 0.492E-04
   -.698E-02 0.956E-02 0.170E+02   0.546E-02 -.617E-02 -.162E+02   0.149E-02 -.385E-02 -.860E+00   -.106E-05 0.499E-06 0.578E-04
   0.664E-02 0.481E-02 0.744E+01   -.473E-02 -.417E-02 -.742E+01   -.867E-03 0.484E-02 -.164E-01   0.259E-05 -.199E-05 0.350E-04
   0.632E-02 0.793E-02 0.103E+02   -.333E-02 -.759E-02 -.104E+02   -.292E-02 -.418E-02 0.809E-01   0.693E-06 0.113E-06 0.463E-04
   0.135E-01 -.122E-01 0.146E+01   -.982E-02 0.996E-02 -.149E+01   -.381E-03 0.266E-02 0.283E-01   0.859E-06 -.386E-05 0.101E-05
   -.166E-01 0.818E-02 0.451E+01   0.135E-01 -.719E-02 -.450E+01   0.176E-02 -.148E-02 -.942E-02   0.421E-06 -.363E-05 0.136E-04
   -.153E-01 0.740E-02 -.451E+01   0.125E-01 -.661E-02 0.450E+01   0.269E-02 -.443E-03 0.596E-02   0.716E-06 -.356E-05 -.165E-04
   0.145E-01 -.142E-01 -.146E+01   -.106E-01 0.118E-01 0.149E+01   -.438E-02 0.418E-02 -.265E-01   0.108E-05 -.325E-05 -.321E-05
   0.724E-02 0.119E-01 -.103E+02   -.414E-02 -.112E-01 0.104E+02   -.270E-02 -.749E-02 -.777E-01   0.313E-06 0.875E-07 -.479E-04
   0.396E-02 0.534E-03 -.744E+01   -.249E-02 -.655E-03 0.742E+01   0.776E-03 0.609E-02 0.183E-01   0.319E-06 -.104E-05 -.373E-04
   -.322E-02 0.953E-02 -.170E+02   0.336E-02 -.612E-02 0.162E+02   0.515E-03 -.277E-02 0.859E+00   -.194E-05 0.622E-05 -.588E-04
   0.981E-02 -.478E-02 -.136E+02   -.520E-02 0.402E-02 0.136E+02   -.306E-02 0.294E-02 0.102E-01   -.207E-06 0.149E-05 -.470E-04
   -.450E-02 -.377E-04 0.137E+02   0.367E-02 0.160E-03 -.136E+02   0.421E-02 0.318E-03 -.159E-01   -.172E-05 -.380E-05 0.464E-04
   0.314E-02 0.363E-02 0.171E+02   -.183E-02 -.282E-02 -.162E+02   -.893E-03 -.678E-03 -.866E+00   -.968E-06 -.557E-05 0.548E-04
   -.809E-03 -.335E-02 0.745E+01   0.691E-03 0.269E-02 -.743E+01   0.496E-03 0.190E-02 -.981E-02   0.903E-06 -.136E-05 0.375E-04
   0.199E-02 0.174E-02 0.103E+02   -.172E-02 -.136E-02 -.104E+02   -.149E-02 -.154E-02 0.954E-01   -.869E-06 -.430E-05 0.457E-04
   -.626E-03 0.170E-02 0.149E+01   0.576E-03 -.131E-02 -.150E+01   0.748E-04 -.979E-03 0.113E-01   -.488E-06 -.300E-06 0.456E-06
   0.519E-03 0.211E-02 0.450E+01   -.145E-03 -.176E-02 -.449E+01   -.419E-03 -.131E-03 -.193E-01   -.104E-05 -.295E-05 0.153E-04
   -.267E-02 -.817E-03 -.450E+01   0.215E-02 0.672E-03 0.449E+01   0.249E-02 0.334E-03 0.184E-01   0.922E-06 0.662E-06 -.171E-04
   0.328E-03 0.298E-03 -.149E+01   -.495E-03 -.253E-03 0.150E+01   -.195E-03 -.700E-03 -.931E-02   -.132E-05 -.119E-05 -.556E-05
   0.122E-03 0.173E-02 -.103E+02   0.483E-05 -.149E-02 0.104E+02   -.166E-02 -.125E-02 -.945E-01   -.284E-06 -.143E-05 -.489E-04
   0.225E-02 0.189E-02 -.745E+01   -.178E-02 -.161E-02 0.744E+01   -.772E-03 0.694E-03 0.121E-01   -.126E-05 0.298E-07 -.385E-04
   -.720E-02 -.190E-02 -.171E+02   0.475E-02 0.165E-02 0.162E+02   0.175E-02 0.946E-03 0.868E+00   -.281E-05 -.279E-05 -.554E-04
   0.350E-02 -.218E-02 -.136E+02   -.254E-02 0.203E-02 0.136E+02   -.933E-03 0.130E-02 0.176E-01   -.335E-06 -.107E-05 -.476E-04
   -.113E-01 0.347E-02 0.136E+02   0.660E-02 -.284E-02 -.136E+02   0.250E-02 -.194E-02 -.115E-01   0.256E-05 -.223E-05 0.495E-04
   0.351E-02 -.843E-02 0.170E+02   -.346E-02 0.510E-02 -.162E+02   -.120E-02 0.256E-02 -.861E+00   -.201E-05 -.817E-05 0.631E-04
   -.446E-02 -.255E-02 0.744E+01   0.277E-02 0.237E-02 -.743E+01   0.800E-03 -.544E-02 -.157E-01   -.471E-06 0.397E-05 0.349E-04
   -.861E-02 -.137E-01 0.103E+02   0.539E-02 0.129E-01 -.104E+02   0.252E-02 0.800E-02 0.800E-01   -.168E-06 0.299E-05 0.476E-04
   -.127E-01 0.107E-01 0.146E+01   0.914E-02 -.860E-02 -.149E+01   0.208E-02 -.220E-02 0.259E-01   0.435E-06 0.566E-05 0.143E-05
   0.138E-01 -.137E-01 0.451E+01   -.110E-01 0.118E-01 -.450E+01   -.221E-02 0.597E-02 -.716E-02   0.150E-05 0.594E-05 0.119E-04
   0.137E-01 -.991E-02 -.451E+01   -.112E-01 0.885E-02 0.450E+01   -.150E-02 0.166E-02 0.764E-02   -.603E-06 0.463E-05 -.166E-04
   -.135E-01 0.102E-01 -.146E+01   0.991E-02 -.825E-02 0.149E+01   0.218E-02 -.166E-02 -.260E-01   0.655E-06 0.668E-05 -.131E-05
   -.788E-02 -.102E-01 -.103E+02   0.454E-02 0.968E-02 0.104E+02   0.686E-03 0.403E-02 -.798E-01   -.182E-06 -.274E-06 -.490E-04
   -.616E-02 -.550E-02 -.744E+01   0.436E-02 0.466E-02 0.742E+01   0.100E-02 -.440E-02 0.168E-01   -.636E-06 0.300E-05 -.390E-04
   0.925E-02 -.467E-02 -.170E+02   -.703E-02 0.292E-02 0.162E+02   -.306E-02 0.260E-02 0.856E+00   0.233E-05 -.590E-05 -.584E-04
   -.129E-01 0.498E-02 -.136E+02   0.787E-02 -.419E-02 0.136E+02   0.131E-02 -.157E-02 0.986E-02   -.191E-05 -.557E-05 -.488E-04
   0.104E-01 -.635E-02 0.136E+02   -.595E-02 0.510E-02 -.136E+02   -.162E-02 0.237E-02 -.103E-01   -.512E-06 -.446E-07 0.452E-04
   -.837E-02 0.904E-02 0.170E+02   0.618E-02 -.601E-02 -.162E+02   0.258E-02 -.392E-02 -.859E+00   0.249E-05 0.190E-05 0.552E-04
   0.568E-02 0.283E-02 0.744E+01   -.382E-02 -.232E-02 -.742E+01   -.103E-02 0.468E-02 -.183E-01   0.137E-05 -.138E-05 0.355E-04
   0.645E-02 0.930E-02 0.103E+02   -.339E-02 -.897E-02 -.104E+02   -.245E-02 -.365E-02 0.813E-01   0.151E-05 0.147E-06 0.449E-04
   0.133E-01 -.135E-01 0.146E+01   -.971E-02 0.112E-01 -.149E+01   -.317E-02 0.304E-02 0.278E-01   0.924E-06 -.532E-05 0.108E-05
   -.161E-01 0.971E-02 0.451E+01   0.132E-01 -.844E-02 -.450E+01   0.517E-02 -.247E-02 -.106E-01   0.693E-06 -.549E-05 0.142E-04
   -.172E-01 0.814E-02 -.451E+01   0.141E-01 -.719E-02 0.450E+01   0.494E-02 -.248E-02 0.575E-02   -.776E-06 -.194E-05 -.150E-04
   0.157E-01 -.127E-01 -.146E+01   -.117E-01 0.105E-01 0.149E+01   -.556E-02 0.405E-02 -.263E-01   0.190E-05 -.553E-05 -.282E-05
   0.746E-02 0.100E-01 -.103E+02   -.437E-02 -.971E-02 0.104E+02   -.196E-02 -.491E-02 -.776E-01   -.197E-05 -.817E-07 -.470E-04
   0.719E-02 0.562E-02 -.744E+01   -.507E-02 -.479E-02 0.742E+01   0.798E-03 0.350E-02 0.184E-01   0.133E-05 -.223E-05 -.352E-04
   -.189E-02 0.841E-02 -.170E+02   0.259E-02 -.530E-02 0.162E+02   -.117E-02 -.312E-02 0.859E+00   -.289E-05 0.101E-05 -.561E-04
   0.920E-02 -.159E-02 -.136E+02   -.486E-02 0.132E-02 0.136E+02   -.149E-02 0.646E-03 0.901E-02   0.250E-06 0.274E-05 -.460E-04
   -.121E-01 0.201E-02 0.136E+02   0.730E-02 -.159E-02 -.136E+02   0.362E-02 -.119E-02 -.858E-02   -.117E-05 0.461E-06 0.474E-04
   0.825E-02 -.109E-01 0.170E+02   -.678E-02 0.738E-02 -.162E+02   -.399E-02 0.335E-02 -.862E+00   -.273E-05 0.235E-05 0.580E-04
   -.898E-02 -.385E-02 0.744E+01   0.673E-02 0.354E-02 -.742E+01   0.268E-02 -.620E-02 -.170E-01   0.133E-05 0.637E-05 0.335E-04
   -.740E-02 -.111E-01 0.103E+02   0.426E-02 0.105E-01 -.104E+02   0.206E-02 0.454E-02 0.776E-01   -.152E-05 0.334E-05 0.443E-04
   -.141E-01 0.945E-02 0.146E+01   0.104E-01 -.764E-02 -.149E+01   0.273E-02 -.136E-02 0.253E-01   0.887E-06 0.698E-05 0.125E-05
   0.155E-01 -.993E-02 0.451E+01   -.124E-01 0.860E-02 -.450E+01   -.404E-02 0.234E-02 -.510E-02   -.199E-05 0.615E-05 0.130E-04
   0.133E-01 -.109E-01 -.451E+01   -.106E-01 0.931E-02 0.450E+01   -.164E-02 0.305E-02 0.840E-02   0.405E-05 0.554E-05 -.150E-04
   -.143E-01 0.127E-01 -.146E+01   0.105E-01 -.103E-01 0.149E+01   -.244E-03 -.352E-02 -.287E-01   -.148E-05 0.576E-05 -.439E-05
   -.869E-02 -.117E-01 -.103E+02   0.538E-02 0.111E-01 0.104E+02   0.136E-02 0.564E-02 -.794E-01   -.412E-06 -.110E-05 -.469E-04
   -.430E-02 -.308E-02 -.744E+01   0.291E-02 0.261E-02 0.743E+01   -.648E-03 -.476E-02 0.177E-01   -.118E-05 0.117E-05 -.340E-04
   0.490E-02 -.969E-02 -.170E+02   -.399E-02 0.615E-02 0.162E+02   -.167E-02 0.481E-02 0.860E+00   -.362E-05 -.723E-05 -.576E-04
   -.114E-01 0.210E-02 -.136E+02   0.665E-02 -.166E-02 0.136E+02   0.502E-03 -.693E-03 0.777E-02   -.149E-05 -.325E-05 -.460E-04
 -----------------------------------------------------------------------------------------------
   -.116E-03 0.595E-05 -.436E-03   0.895E-14 -.184E-13 -.462E-13   -.904E-02 0.116E-01 -.324E-02   -.390E-06 0.686E-06 -.601E-04
 
 
 POSITION                                       TOTAL-FORCE (eV/Angst)
 -----------------------------------------------------------------------------------
      0.00051     -0.00001      8.25227         0.000545     -0.000557     -0.008127
     -2.96112      0.00360      6.24604         0.000553      0.001360      0.001815
     -0.00077     -0.00027     12.33932         0.001052     -0.000009      0.003638
     -2.96575      0.00107     10.21588         0.000487     -0.000147      0.005988
     -0.00018     -0.00010     16.50016         0.000331     -0.000058     -0.004434
     -2.96747     -0.00046     14.45715        -0.000727     -0.000920     -0.003097
      0.00138     -0.00046     20.61763         0.001055      0.000466      0.003803
     -2.96651      0.00047     18.57507         0.000246      0.000708      0.003646
      0.00081      0.00123     24.85990        -0.000919     -0.000692     -0.006279
     -2.96523     -0.00005     22.73634        -0.001527      0.000847     -0.005447
     -0.00647     -0.00196     28.82840        -0.000542      0.000676     -0.002976
     -2.96728      0.00004     26.82446        -0.001026     -0.000822     -0.002904
     -2.94555      2.96301      8.25855         0.002820      0.000405      0.001009
     -5.92421      2.97239      6.24999         0.001387      0.000401      0.001669
     -2.94630      2.94954     12.35425         0.002995      0.005215     -0.000859
     -5.90951      2.98036     10.24185         0.001326     -0.004291     -0.000826
     -2.93966      2.96860     16.48565         0.003032      0.001483      0.000644
     -5.91879      2.97087     14.42981        -0.001057     -0.001784      0.004439
     -2.95281      2.97150     20.64577         0.000290     -0.003621     -0.003643
     -5.90593      2.96775     18.58753        -0.001336      0.001376      0.000899
     -2.94346      2.97984     24.83287         0.000524     -0.003511      0.001773
     -5.91447      2.94878     22.72131         0.003270      0.003760      0.001422
     -2.95618      2.97553     28.82546         0.000031     -0.001098     -0.001410
     -5.91117      2.96252     26.81718         0.003085      0.000243     -0.001058
     -5.93143     -0.00007      8.24899        -0.000167      0.001806      0.003989
     -8.89655      0.00064      6.24947        -0.000679      0.000624      0.005528
     -5.93293      0.00016     12.33881        -0.001086     -0.000393      0.003872
     -8.90004     -0.00060     10.21450         0.001675     -0.000341      0.005671
     -5.93316      0.00071     16.49966         0.000535     -0.000513     -0.003013
     -8.90132     -0.00094     14.45573         0.001779     -0.000437     -0.002543
     -5.93287     -0.00078     20.61970        -0.000502     -0.000848      0.002016
     -8.90060      0.00093     18.57453         0.002977     -0.002951      0.006774
     -5.93330     -0.00014     24.86000        -0.000074     -0.000154     -0.005423
     -8.89970      0.00113     22.73535         0.000737     -0.002505     -0.003060
     -5.93511     -0.00009     28.82913        -0.000376     -0.000717     -0.002224
     -8.90071     -0.00032     26.82374        -0.001315     -0.000571      0.002069
     -5.95425      5.93690      8.25957        -0.001725     -0.000010      0.001564
     -8.90866      5.92532      6.24955        -0.002113      0.000523      0.000535
     -5.95279      5.95178     12.35417        -0.001377     -0.006279     -0.002411
     -8.92302      5.91847     10.24221        -0.002887      0.007345     -0.002530
     -5.95835      5.93073     16.48807         0.000226      0.000432     -0.002396
     -8.91410      5.92921     14.43012        -0.002013      0.000773      0.000979
     -5.94695      5.92946     20.64457        -0.001605      0.000770     -0.001179
     -8.92543      5.93110     18.58757        -0.002101     -0.001018      0.000603
     -5.95859      5.92006     24.83349         0.000340      0.003389     -0.002399
     -8.91933      5.95031     22.72122        -0.001997     -0.005340      0.001307
     -5.94357      5.92556     28.82403        -0.000273      0.000745      0.001011
     -8.92294      5.93636     26.81629        -0.002845      0.002342     -0.002388
     -8.87871      2.96240      8.25812         0.003000     -0.000495      0.000760
    -11.85628      2.97474      6.24982         0.000053     -0.000560      0.001743
     -8.87927      2.94937     12.35378         0.001128      0.005372      0.000360
    -11.84279      2.97863     10.24032         0.000157     -0.003937     -0.000835
     -8.87286      2.96786     16.48585         0.003348      0.000291      0.000668
    -11.85177      2.97065     14.43000        -0.001256     -0.000603      0.001234
     -8.88510      2.96998     20.64550        -0.000098      0.000241     -0.003563
    -11.83909      2.96765     18.58786        -0.000337      0.001602      0.000520
     -8.87699      2.98059     24.83285         0.000480     -0.006935      0.003449
    -11.84689      2.94902     22.72045         0.002331      0.005857      0.001770
     -8.89031      2.97257     28.82566         0.000736      0.000531     -0.002665
    -11.84681      2.96225     26.81719         0.001642      0.002079     -0.000065
    -11.86766     -0.00119      8.25172         0.003459      0.000329     -0.005196
    -14.83070      0.00126      6.24893         0.000502      0.000015      0.005221
    -11.86678     -0.00081     12.33913         0.000463      0.001128      0.003039
    -14.83260      0.00157     10.21491        -0.001132     -0.001272      0.007406
    -11.86705      0.00045     16.49993         0.000108     -0.000697     -0.002757
    -14.83416      0.00080     14.45637         0.000039      0.000107     -0.002770
    -11.86775     -0.00079     20.61894         0.002051      0.000082      0.002075
    -14.83268      0.00072     18.57514        -0.000279     -0.000765      0.005233
    -11.86617      0.00206     24.85946        -0.001446     -0.001124     -0.007268
    -14.83247      0.00052     22.73502        -0.000224      0.000860     -0.000949
    -11.87268     -0.00177     28.82856        -0.000614      0.000581     -0.002859
    -14.83470     -0.00113     26.82286         0.000113      0.001036      0.007196
    -11.88748      5.93920      8.25753        -0.002098     -0.001422     -0.001372
    -14.84194      5.92710      6.24887        -0.001066     -0.000879      0.000995
    -11.88600      5.95081     12.35294        -0.000807     -0.005718      0.000531
    -14.85650      5.91891     10.24190        -0.000620      0.007094     -0.001433
    -11.89238      5.93097     16.48749        -0.001405     -0.000207     -0.001333
    -14.84854      5.92811     14.42945         0.000702      0.004047      0.003071
    -11.88152      5.92960     20.64539         0.001113      0.000494     -0.002407
    -14.85888      5.93134     18.58740        -0.001336      0.000229      0.001467
    -11.89121      5.92061     24.83227        -0.002567      0.003427      0.001407
    -14.85406      5.95040     22.72179        -0.000713     -0.005347      0.000339
    -11.87594      5.92613     28.82694        -0.000748      0.000730     -0.005002
    -14.85530      5.93787     26.81727        -0.003615     -0.000899     -0.000463
    -14.81193      2.96295      8.25770         0.002953      0.001016     -0.000396
    -17.78950      2.97516      6.24909         0.000475     -0.000991      0.002377
    -14.81223      2.94967     12.35471         0.000925      0.005083     -0.001071
    -17.77574      2.97844     10.24136         0.000688     -0.003431     -0.000421
    -14.80589      2.96789     16.48673         0.000514      0.000639     -0.000129
    -17.78554      2.97060     14.43066         0.002356     -0.001311      0.000005
    -14.81988      2.97149     20.64690         0.001943     -0.001644     -0.003560
    -17.77239      2.96754     18.58753        -0.001443      0.001693      0.000920
    -14.80966      2.98002     24.83223         0.001207     -0.004689      0.003372
    -17.78042      2.95034     22.72013         0.002996      0.004222      0.001795
    -14.82359      2.97279     28.82588        -0.000396     -0.000117     -0.002778
    -17.77846      2.96329     26.81600         0.002932      0.000272     -0.000964
    -17.82024      5.93666      8.25869        -0.001084     -0.000881      0.001282
    -20.77433      5.92521      6.25009        -0.002432     -0.000268      0.000020
    -17.82034      5.94998     12.35309         0.000522     -0.006608     -0.000620
    -20.78984      5.91941     10.24229        -0.000994      0.003830     -0.003716
    -17.82541      5.93092     16.48838        -0.000882      0.000354     -0.001809
    -20.78044      5.92985     14.42840        -0.000901      0.000901      0.004304
    -17.81543      5.92989     20.64546         0.001149      0.001404     -0.001378
    -20.79201      5.93144     18.58756        -0.004002     -0.001260     -0.001020
    -17.82456      5.92034     24.83251        -0.001866      0.004959      0.002129
    -20.78719      5.95096     22.72178        -0.001951     -0.005336      0.000895
    -17.81057      5.92594     28.82532        -0.000679      0.001156     -0.001038
    -20.78769      5.93743     26.81586        -0.004130     -0.000364     -0.001783
 -----------------------------------------------------------------------------------
    total drift:                               -0.009157      0.011644     -0.003739


--------------------------------------------------------------------------------------------------------



  FREE ENERGIE OF THE ION-ELECTRON SYSTEM (eV)
  ---------------------------------------------------
  free  energy   TOTEN  =      -138.59668708 eV

  energy  without entropy=     -138.27355080  energy(sigma->0) =     -138.43511894
 
 d Force = 0.1604933E-02[ 0.764E-03, 0.245E-02]  d Energy = 0.1466576E-02 0.138E-03
 d Force =-0.1577391E+01[-0.158E+01,-0.158E+01]  d Ewald  =-0.1577391E+01 0.179E-06


--------------------------------------------------------------------------------------------------------


    POTLOK:  cpu time    0.1042: real time    0.1043


--------------------------------------------------------------------------------------------------------


 Conjugate gradient step on ions:
 trial-energy change:   -0.001467  1 .order   -0.001605   -0.002446   -0.000764
  (g-gl).g = 0.918E-04      g.g   = 0.221E-03  gl.gl    = 0.572E-03
 g(Force)  = 0.221E-03   g(Stress)= 0.000E+00 ortho     = 0.338E-05
 gamma     =   0.16046
 trial     =  11.02287
 opt step  =  16.02451  (harmonic =  16.02451) maximal distance =0.00852740
 next E    =  -138.596999   (d E  =  -0.00178)


--------------------------------------------------------------------------------------------------------


  
 reached required accuracy - stopping structural energy minimisation
     LOOP+:  cpu time    9.3921: real time    9.7817
    4ORBIT:  cpu time    0.0000: real time    0.0000

 total amount of memory used by VASP MPI-rank0    45724. kBytes
=======================================================================

   base      :      30000. kBytes
   nonlr-proj:       2892. kBytes
   fftplans  :       4263. kBytes
   grid      :       5723. kBytes
   one-center:          8. kBytes
   wavefun   :       2838. kBytes
 
  
  
 General timing and accounting informations for this job:
 ========================================================
  
                  Total CPU time used (sec):      440.626
                            User time (sec):      432.054
                          System time (sec):        8.572
                         Elapsed time (sec):      453.406
  
                   Maximum memory used (kb):      136864.
                   Average memory used (kb):          N/A
  
                          Minor page faults:       806634
                          Major page faults:            0
                 Voluntary context switches:         4777
