<?xml version="1.0" encoding="ISO-8859-1"?>
<modeling>
 <generator>
  <i name="program" type="string">vasp </i>
  <i name="version" type="string">6.2.1  </i>
  <i name="subversion" type="string">16May21 (build Dec 23 2021 00:35:04) complex                          parallel </i>
  <i name="platform" type="string">LinuxIFC </i>
  <i name="date" type="string">2023 03 03 </i>
  <i name="time" type="string">01:22:12 </i>
 </generator>
 <incar>
  <i type="string" name="PREC">Normal</i>
  <i type="string" name="ALGO">Fast</i>
  <i type="int" name="ISPIN">     0</i>
  <i name="AMIN">      0.01000000</i>
  <i type="int" name="NELM">   150</i>
  <i type="int" name="IBRION">     2</i>
  <i name="EDIFF">      0.00000001</i>
  <i name="EDIFFG">     -0.01000000</i>
  <i type="int" name="NSW">   800</i>
  <i type="int" name="ISIF">     2</i>
  <i type="int" name="ISYM">     0</i>
  <i name="ENCUT">    400.00000000</i>
  <i type="string" name="LREAL">AUTO</i>
  <i type="int" name="ISMEAR">     0</i>
  <i name="SIGMA">      0.10000000</i>
  <i name="KSPACING">      0.50000000</i>
  <i type="logical" name="KGAMMA"> T  </i>
  <i type="int" name="NWRITE">     1</i>
  <i type="int" name="LMAXMIX">     6</i>
  <i type="logical" name="LWAVE"> F  </i>
  <i type="logical" name="LCHARG"> F  </i>
  <i type="logical" name="LASPH"> T  </i>
  <i type="string" name="GGA">PE</i>
  <i type="logical" name="LDIPOL"> T  </i>
  <i type="int" name="IDIPOL">     3</i>
  <v name="DIPOL">      0.38890000      0.41670000      0.50000000</v>
 </incar>
 <primitive_cell>
  <structure name="primitive_cell" >
   <crystal>
    <varray name="basis" >
     <v>      -8.89989772       8.89989772       0.00000000 </v>
     <v>     -17.79979544      -0.00000000       0.00000000 </v>
     <v>       0.00000000       0.00000000      35.07498653 </v>
    </varray>
    <i name="volume">   5556.45165339 </i>
    <varray name="rec_basis" >
     <v>      -0.00000000       0.11236084       0.00000000 </v>
     <v>      -0.05618042      -0.05618042       0.00000000 </v>
     <v>       0.00000000       0.00000000       0.02851035 </v>
    </varray>
   </crystal>
   <varray name="positions" >
    <v>       0.00000000       0.00000003       0.23086898 </v>
    <v>       0.00000000       0.16666667       0.17106208 </v>
    <v>       0.00000000       0.00000003       0.35048277 </v>
    <v>       0.00000000       0.16666667       0.29067586 </v>
    <v>       0.00000000       0.00000003       0.47009656 </v>
    <v>       0.00000000       0.16666667       0.41028965 </v>
    <v>       0.00000000       0.00000003       0.58971035 </v>
    <v>       0.00000000       0.16666667       0.52990344 </v>
    <v>       0.00000000       0.00000003       0.70932414 </v>
    <v>       0.00000000       0.16666667       0.64951723 </v>
    <v>       0.00000000       0.00000003       0.82893792 </v>
    <v>       0.00000000       0.16666667       0.76913102 </v>
    <v>       0.33333333       0.00000003       0.23086898 </v>
    <v>       0.33333333       0.16666667       0.17106208 </v>
    <v>       0.33333333       0.00000003       0.35048277 </v>
    <v>       0.33333333       0.16666667       0.29067586 </v>
    <v>       0.33333333       0.00000003       0.47009656 </v>
    <v>       0.33333333       0.16666667       0.41028965 </v>
    <v>       0.33333333       0.00000003       0.58971035 </v>
    <v>       0.33333333       0.16666667       0.52990344 </v>
    <v>       0.33333333       0.00000003       0.70932414 </v>
    <v>       0.33333333       0.16666667       0.64951723 </v>
    <v>       0.33333333       0.00000003       0.82893792 </v>
    <v>       0.33333333       0.16666667       0.76913102 </v>
    <v>       0.00000000       0.33333337       0.23086898 </v>
    <v>       0.00000000       0.50000000       0.17106208 </v>
    <v>       0.00000000       0.33333337       0.35048277 </v>
    <v>       0.00000000       0.50000000       0.29067586 </v>
    <v>       0.00000000       0.33333337       0.47009656 </v>
    <v>       0.00000000       0.50000000       0.41028965 </v>
    <v>       0.00000000       0.33333337       0.58971035 </v>
    <v>       0.00000000       0.50000000       0.52990344 </v>
    <v>       0.00000000       0.33333337       0.70932414 </v>
    <v>       0.00000000       0.50000000       0.64951723 </v>
    <v>       0.00000000       0.33333337       0.82893792 </v>
    <v>       0.00000000       0.50000000       0.76913102 </v>
    <v>       0.66666667       0.00000003       0.23086898 </v>
    <v>       0.66666667       0.16666667       0.17106208 </v>
    <v>       0.66666667       0.00000003       0.35048277 </v>
    <v>       0.66666667       0.16666667       0.29067586 </v>
    <v>       0.66666667       0.00000003       0.47009656 </v>
    <v>       0.66666667       0.16666667       0.41028965 </v>
    <v>       0.66666667       0.00000003       0.58971035 </v>
    <v>       0.66666667       0.16666667       0.52990344 </v>
    <v>       0.66666667       0.00000003       0.70932414 </v>
    <v>       0.66666667       0.16666667       0.64951723 </v>
    <v>       0.66666667       0.00000003       0.82893792 </v>
    <v>       0.66666667       0.16666667       0.76913102 </v>
    <v>       0.33333333       0.33333337       0.23086898 </v>
    <v>       0.33333333       0.50000000       0.17106208 </v>
    <v>       0.33333333       0.33333337       0.35048277 </v>
    <v>       0.33333333       0.50000000       0.29067586 </v>
    <v>       0.33333333       0.33333337       0.47009656 </v>
    <v>       0.33333333       0.50000000       0.41028965 </v>
    <v>       0.33333333       0.33333337       0.58971035 </v>
    <v>       0.33333333       0.50000000       0.52990344 </v>
    <v>       0.33333333       0.33333337       0.70932414 </v>
    <v>       0.33333333       0.50000000       0.64951723 </v>
    <v>       0.33333333       0.33333337       0.82893792 </v>
    <v>       0.33333333       0.50000000       0.76913102 </v>
    <v>       0.00000000       0.66666670       0.23086898 </v>
    <v>       0.00000000       0.83333333       0.17106208 </v>
    <v>       0.00000000       0.66666670       0.35048277 </v>
    <v>       0.00000000       0.83333333       0.29067586 </v>
    <v>       0.00000000       0.66666670       0.47009656 </v>
    <v>       0.00000000       0.83333333       0.41028965 </v>
    <v>       0.00000000       0.66666670       0.58971035 </v>
    <v>       0.00000000       0.83333333       0.52990344 </v>
    <v>       0.00000000       0.66666670       0.70932414 </v>
    <v>       0.00000000       0.83333333       0.64951723 </v>
    <v>       0.00000000       0.66666670       0.82893792 </v>
    <v>       0.00000000       0.83333333       0.76913102 </v>
    <v>       0.66666667       0.33333337       0.23086898 </v>
    <v>       0.66666667       0.50000000       0.17106208 </v>
    <v>       0.66666667       0.33333337       0.35048277 </v>
    <v>       0.66666667       0.50000000       0.29067586 </v>
    <v>       0.66666667       0.33333337       0.47009656 </v>
    <v>       0.66666667       0.50000000       0.41028965 </v>
    <v>       0.66666667       0.33333337       0.58971035 </v>
    <v>       0.66666667       0.50000000       0.52990344 </v>
    <v>       0.66666667       0.33333337       0.70932414 </v>
    <v>       0.66666667       0.50000000       0.64951723 </v>
    <v>       0.66666667       0.33333337       0.82893792 </v>
    <v>       0.66666667       0.50000000       0.76913102 </v>
    <v>       0.33333333       0.66666670       0.23086898 </v>
    <v>       0.33333333       0.83333333       0.17106208 </v>
    <v>       0.33333333       0.66666670       0.35048277 </v>
    <v>       0.33333333       0.83333333       0.29067586 </v>
    <v>       0.33333333       0.66666670       0.47009656 </v>
    <v>       0.33333333       0.83333333       0.41028965 </v>
    <v>       0.33333333       0.66666670       0.58971035 </v>
    <v>       0.33333333       0.83333333       0.52990344 </v>
    <v>       0.33333333       0.66666670       0.70932414 </v>
    <v>       0.33333333       0.83333333       0.64951723 </v>
    <v>       0.33333333       0.66666670       0.82893792 </v>
    <v>       0.33333333       0.83333333       0.76913102 </v>
    <v>       0.66666667       0.66666670       0.23086898 </v>
    <v>       0.66666667       0.83333333       0.17106208 </v>
    <v>       0.66666667       0.66666670       0.35048277 </v>
    <v>       0.66666667       0.83333333       0.29067586 </v>
    <v>       0.66666667       0.66666670       0.47009656 </v>
    <v>       0.66666667       0.83333333       0.41028965 </v>
    <v>       0.66666667       0.66666670       0.58971035 </v>
    <v>       0.66666667       0.83333333       0.52990344 </v>
    <v>       0.66666667       0.66666670       0.70932414 </v>
    <v>       0.66666667       0.83333333       0.64951723 </v>
    <v>       0.66666667       0.66666670       0.82893792 </v>
    <v>       0.66666667       0.83333333       0.76913102 </v>
   </varray>
  </structure>
  <varray name="primitive_index" >
   <v type="int" >        1 </v>
   <v type="int" >        2 </v>
   <v type="int" >        3 </v>
   <v type="int" >        4 </v>
   <v type="int" >        5 </v>
   <v type="int" >        6 </v>
   <v type="int" >        7 </v>
   <v type="int" >        8 </v>
   <v type="int" >        9 </v>
   <v type="int" >       10 </v>
   <v type="int" >       11 </v>
   <v type="int" >       12 </v>
   <v type="int" >       13 </v>
   <v type="int" >       14 </v>
   <v type="int" >       15 </v>
   <v type="int" >       16 </v>
   <v type="int" >       17 </v>
   <v type="int" >       18 </v>
   <v type="int" >       19 </v>
   <v type="int" >       20 </v>
   <v type="int" >       21 </v>
   <v type="int" >       22 </v>
   <v type="int" >       23 </v>
   <v type="int" >       24 </v>
   <v type="int" >       25 </v>
   <v type="int" >       26 </v>
   <v type="int" >       27 </v>
   <v type="int" >       28 </v>
   <v type="int" >       29 </v>
   <v type="int" >       30 </v>
   <v type="int" >       31 </v>
   <v type="int" >       32 </v>
   <v type="int" >       33 </v>
   <v type="int" >       34 </v>
   <v type="int" >       35 </v>
   <v type="int" >       36 </v>
   <v type="int" >       37 </v>
   <v type="int" >       38 </v>
   <v type="int" >       39 </v>
   <v type="int" >       40 </v>
   <v type="int" >       41 </v>
   <v type="int" >       42 </v>
   <v type="int" >       43 </v>
   <v type="int" >       44 </v>
   <v type="int" >       45 </v>
   <v type="int" >       46 </v>
   <v type="int" >       47 </v>
   <v type="int" >       48 </v>
   <v type="int" >       49 </v>
   <v type="int" >       50 </v>
   <v type="int" >       51 </v>
   <v type="int" >       52 </v>
   <v type="int" >       53 </v>
   <v type="int" >       54 </v>
   <v type="int" >       55 </v>
   <v type="int" >       56 </v>
   <v type="int" >       57 </v>
   <v type="int" >       58 </v>
   <v type="int" >       59 </v>
   <v type="int" >       60 </v>
   <v type="int" >       61 </v>
   <v type="int" >       62 </v>
   <v type="int" >       63 </v>
   <v type="int" >       64 </v>
   <v type="int" >       65 </v>
   <v type="int" >       66 </v>
   <v type="int" >       67 </v>
   <v type="int" >       68 </v>
   <v type="int" >       69 </v>
   <v type="int" >       70 </v>
   <v type="int" >       71 </v>
   <v type="int" >       72 </v>
   <v type="int" >       73 </v>
   <v type="int" >       74 </v>
   <v type="int" >       75 </v>
   <v type="int" >       76 </v>
   <v type="int" >       77 </v>
   <v type="int" >       78 </v>
   <v type="int" >       79 </v>
   <v type="int" >       80 </v>
   <v type="int" >       81 </v>
   <v type="int" >       82 </v>
   <v type="int" >       83 </v>
   <v type="int" >       84 </v>
   <v type="int" >       85 </v>
   <v type="int" >       86 </v>
   <v type="int" >       87 </v>
   <v type="int" >       88 </v>
   <v type="int" >       89 </v>
   <v type="int" >       90 </v>
   <v type="int" >       91 </v>
   <v type="int" >       92 </v>
   <v type="int" >       93 </v>
   <v type="int" >       94 </v>
   <v type="int" >       95 </v>
   <v type="int" >       96 </v>
   <v type="int" >       97 </v>
   <v type="int" >       98 </v>
   <v type="int" >       99 </v>
   <v type="int" >      100 </v>
   <v type="int" >      101 </v>
   <v type="int" >      102 </v>
   <v type="int" >      103 </v>
   <v type="int" >      104 </v>
   <v type="int" >      105 </v>
   <v type="int" >      106 </v>
   <v type="int" >      107 </v>
   <v type="int" >      108 </v>
  </varray>
 </primitive_cell>
 <kpoints>
  <generation param="Gamma">
   <v type="int" name="divisions">       2        1        1 </v>
   <v name="usershift">      0.00000000       0.00000000       0.00000000 </v>
   <v name="genvec1">      0.50000000       0.00000000       0.00000000 </v>
   <v name="genvec2">      0.00000000       1.00000000       0.00000000 </v>
   <v name="genvec3">      0.00000000       0.00000000       1.00000000 </v>
   <v name="shift">      0.00000000       0.00000000       0.00000000 </v>
  </generation>
  <varray name="kpointlist" >
   <v>       0.00000000       0.00000000       0.00000000 </v>
   <v>       0.50000000       0.00000000       0.00000000 </v>
  </varray>
  <varray name="weights" >
   <v>       0.50000000 </v>
   <v>       0.50000000 </v>
  </varray>
 </kpoints>
 <parameters>
  <separator name="general" >
   <i type="string" name="SYSTEM">unknown system</i>
   <i type="logical" name="LCOMPAT"> F  </i>
  </separator>
  <separator name="electronic" >
   <i type="string" name="PREC">normal</i>
   <i name="ENMAX">    400.00000000</i>
   <i name="ENAUG">    250.69500000</i>
   <i name="EDIFF">      0.00000001</i>
   <i type="int" name="IALGO">    68</i>
   <i type="int" name="IWAVPR">    11</i>
   <i type="int" name="NBANDS">   112</i>
   <i type="int" name="NBANDSLOW">    -1</i>
   <i type="int" name="NBANDSHIGH">    -1</i>
   <i name="NELECT">    108.00000000</i>
   <i type="int" name="TURBO">     0</i>
   <i type="int" name="IRESTART">     0</i>
   <i type="int" name="NREBOOT">     0</i>
   <i type="int" name="NMIN">     0</i>
   <i name="EREF">      0.00000000</i>
   <separator name="electronic smearing" >
    <i type="int" name="ISMEAR">     0</i>
    <i name="SIGMA">      0.10000000</i>
    <i name="KSPACING">      0.50000000</i>
    <i type="logical" name="KGAMMA"> T  </i>
    <i type="logical" name="KBLOWUP"> T  </i>
   </separator>
   <separator name="electronic projectors" >
    <i type="logical" name="LREAL"> T  </i>
    <v name="ROPT">     -0.00050000</v>
    <i type="int" name="LMAXPAW">  -100</i>
    <i type="int" name="LMAXMIX">     6</i>
    <i type="logical" name="NLSPLINE"> F  </i>
   </separator>
   <separator name="electronic startup" >
    <i type="int" name="ISTART">     0</i>
    <i type="int" name="ICHARG">     2</i>
    <i type="int" name="INIWAV">     1</i>
   </separator>
   <separator name="electronic spin" >
    <i type="int" name="ISPIN">     1</i>
    <i type="logical" name="LNONCOLLINEAR"> F  </i>
    <v name="MAGMOM">      1.00000000      1.00000000      1.00000000      1.00000000      1.00000000      1.00000000      1.00000000      1.00000000      1.00000000      1.00000000      1.00000000      1.00000000      1.00000000      1.00000000      1.00000000      1.00000000      1.00000000      1.00000000      1.00000000      1.00000000
      1.00000000      1.00000000      1.00000000      1.00000000      1.00000000      1.00000000      1.00000000      1.00000000      1.00000000      1.00000000      1.00000000      1.00000000      1.00000000      1.00000000      1.00000000      1.00000000      1.00000000      1.00000000      1.00000000      1.00000000
      1.00000000      1.00000000      1.00000000      1.00000000      1.00000000      1.00000000      1.00000000      1.00000000      1.00000000      1.00000000      1.00000000      1.00000000      1.00000000      1.00000000      1.00000000      1.00000000      1.00000000      1.00000000      1.00000000      1.00000000
      1.00000000      1.00000000      1.00000000      1.00000000      1.00000000      1.00000000      1.00000000      1.00000000      1.00000000      1.00000000      1.00000000      1.00000000      1.00000000      1.00000000      1.00000000      1.00000000      1.00000000      1.00000000      1.00000000      1.00000000
      1.00000000      1.00000000      1.00000000      1.00000000      1.00000000      1.00000000      1.00000000      1.00000000      1.00000000      1.00000000      1.00000000      1.00000000      1.00000000      1.00000000      1.00000000      1.00000000      1.00000000      1.00000000      1.00000000      1.00000000
      1.00000000      1.00000000      1.00000000      1.00000000      1.00000000      1.00000000      1.00000000      1.00000000</v>
    <i name="NUPDOWN">     -1.00000000</i>
    <i type="logical" name="LSORBIT"> F  </i>
    <v name="SAXIS">      0.00000000      0.00000000      1.00000000</v>
    <i type="logical" name="LSPIRAL"> F  </i>
    <v name="QSPIRAL">      0.00000000      0.00000000      0.00000000</v>
    <i type="logical" name="LZEROZ"> F  </i>
   </separator>
   <separator name="electronic exchange-correlation" >
    <i type="logical" name="LASPH"> T  </i>
    <i type="logical" name="LMETAGGA"> F  </i>
   </separator>
   <separator name="electronic convergence" >
    <i type="int" name="NELM">   150</i>
    <i type="int" name="NELMDL">    -5</i>
    <i type="int" name="NELMIN">     2</i>
    <i name="ENINI">    400.00000000</i>
    <separator name="electronic convergence detail" >
     <i type="logical" name="LDIAG"> T  </i>
     <i type="logical" name="LSUBROT"> F  </i>
     <i name="WEIMIN">      0.00100000</i>
     <i name="EBREAK">      0.00000000</i>
     <i name="DEPER">      0.30000000</i>
     <i type="int" name="NRMM">     4</i>
     <i name="TIME">      0.40000000</i>
    </separator>
   </separator>
   <separator name="electronic mixer" >
    <i name="AMIX">      0.40000000</i>
    <i name="BMIX">      1.00000000</i>
    <i name="AMIN">      0.01000000</i>
    <i name="AMIX_MAG">      1.60000000</i>
    <i name="BMIX_MAG">      1.00000000</i>
    <separator name="electronic mixer details" >
     <i type="int" name="IMIX">     4</i>
     <i type="logical" name="MIXFIRST"> F  </i>
     <i type="int" name="MAXMIX">   -45</i>
     <i name="WC">    100.00000000</i>
     <i type="int" name="INIMIX">     1</i>
     <i type="int" name="MIXPRE">     1</i>
     <i type="int" name="MREMOVE">     5</i>
    </separator>
   </separator>
   <separator name="electronic dipolcorrection" >
    <i type="logical" name="LDIPOL"> T  </i>
    <i type="logical" name="LMONO"> F  </i>
    <i type="int" name="IDIPOL">     3</i>
    <i name="EPSILON">      1.00000000</i>
    <v name="DIPOL">      0.38890000      0.41670000      0.50000000</v>
    <i name="EFIELD">      0.00000000</i>
   </separator>
  </separator>
  <separator name="grids" >
   <i type="int" name="NGX">    64</i>
   <i type="int" name="NGY">    90</i>
   <i type="int" name="NGZ">   180</i>
   <i type="int" name="NGXF">   128</i>
   <i type="int" name="NGYF">   180</i>
   <i type="int" name="NGZF">   360</i>
   <i type="logical" name="ADDGRID"> F  </i>
  </separator>
  <separator name="ionic" >
   <i type="int" name="NSW">   800</i>
   <i type="int" name="IBRION">     2</i>
   <i type="int" name="MDALGO">     0</i>
   <i type="int" name="ISIF">     2</i>
   <i name="PSTRESS">      0.00000000</i>
   <i name="EDIFFG">     -0.01000000</i>
   <i type="int" name="NFREE">     1</i>
   <i name="POTIM">      0.50000000</i>
   <i name="SMASS">     -3.00000000</i>
   <i name="SCALEE">      1.00000000</i>
  </separator>
  <separator name="ionic md" >
   <i name="TEBEG">      0.00010000</i>
   <i name="TEEND">      0.00010000</i>
   <i type="int" name="NBLOCK">     1</i>
   <i type="int" name="KBLOCK">   800</i>
   <i type="int" name="NPACO">   256</i>
   <i name="APACO">     16.00000000</i>
  </separator>
  <separator name="symmetry" >
   <i type="int" name="ISYM">     0</i>
   <i name="SYMPREC">      0.00001000</i>
  </separator>
  <separator name="dos" >
   <i type="int" name="LORBIT">     0</i>
   <v name="RWIGS">     -1.00000000</v>
   <i type="int" name="NEDOS">   301</i>
   <i name="EMIN">     10.00000000</i>
   <i name="EMAX">    -10.00000000</i>
   <i name="EFERMI">      0.00000000</i>
  </separator>
  <separator name="writing" >
   <i type="int" name="NWRITE">     1</i>
   <i type="logical" name="LWAVE"> F  </i>
   <i type="logical" name="LDOWNSAMPLE"> F  </i>
   <i type="logical" name="LCHARG"> F  </i>
   <i type="logical" name="LPARD"> F  </i>
   <i type="logical" name="LVTOT"> F  </i>
   <i type="logical" name="LVHAR"> F  </i>
   <i type="logical" name="LELF"> F  </i>
   <i type="logical" name="LOPTICS"> F  </i>
   <v name="STM">      0.00000000      0.00000000      0.00000000      0.00000000      0.00000000      0.00000000      0.00000000</v>
  </separator>
  <separator name="performance" >
   <i type="int" name="NPAR">     8</i>
   <i type="int" name="NSIM">     4</i>
   <i type="int" name="NBLK">    -1</i>
   <i type="logical" name="LPLANE"> T  </i>
   <i type="logical" name="LSCALAPACK"> T  </i>
   <i type="logical" name="LSCAAWARE"> F  </i>
   <i type="logical" name="LSCALU"> F  </i>
   <i type="logical" name="LASYNC"> F  </i>
   <i type="logical" name="LORBITALREAL"> F  </i>
  </separator>
  <separator name="miscellaneous" >
   <i type="int" name="IDIOT">     3</i>
   <i type="int" name="PHON_NSTRUCT">    -1</i>
   <i type="logical" name="LMUSIC"> F  </i>
   <v name="POMASS">     22.99000000</v>
   <v name="DARWINR">      0.00000000</v>
   <v name="DARWINV">      1.00000000</v>
   <i type="logical" name="LCORR"> T  </i>
  </separator>
  <i type="logical" name="GGA_COMPAT"> T  </i>
  <i type="logical" name="LBERRY"> F  </i>
  <i type="int" name="ICORELEVEL">     0</i>
  <i type="logical" name="LDAU"> F  </i>
  <i type="int" name="I_CONSTRAINED_M">     0</i>
  <separator name="electronic exchange-correlation" >
   <i type="string" name="GGA">PE</i>
   <i type="int" name="VOSKOWN">     0</i>
   <i type="logical" name="LHFCALC"> F  </i>
   <i type="string" name="PRECFOCK"></i>
   <i type="logical" name="LSYMGRAD"> F  </i>
   <i type="logical" name="LHFONE"> F  </i>
   <i type="logical" name="LRHFCALC"> F  </i>
   <i type="logical" name="LTHOMAS"> F  </i>
   <i type="logical" name="LMODELHF"> F  </i>
   <i type="logical" name="LFOCKACE"> F  </i>
   <i name="ENCUT4O">     -1.00000000</i>
   <i type="int" name="EXXOEP">     0</i>
   <i type="int" name="FOURORBIT">     0</i>
   <i name="AEXX">      0.00000000</i>
   <i name="HFALPHA">      0.00000000</i>
   <i name="MCALPHA">      0.00000000</i>
   <i name="ALDAX">      1.00000000</i>
   <i name="AGGAX">      1.00000000</i>
   <i name="ALDAC">      1.00000000</i>
   <i name="AGGAC">      1.00000000</i>
   <i type="int" name="NKREDX">     1</i>
   <i type="int" name="NKREDY">     1</i>
   <i type="int" name="NKREDZ">     1</i>
   <i type="logical" name="SHIFTRED"> F  </i>
   <i type="logical" name="ODDONLY"> F  </i>
   <i type="logical" name="EVENONLY"> F  </i>
   <i type="int" name="LMAXFOCK">     0</i>
   <i type="int" name="NMAXFOCKAE">     0</i>
   <i type="logical" name="LFOCKAEDFT"> F  </i>
   <i name="HFSCREEN">      0.00000000</i>
   <i name="HFSCREENC">      0.00000000</i>
   <i type="int" name="NBANDSGWLOW">     0</i>
  </separator>
  <separator name="vdW DFT" >
   <i type="logical" name="LUSE_VDW"> F  </i>
   <i name="Zab_VDW">     -0.84910000</i>
   <i name="PARAM1">      0.12340000</i>
   <i name="PARAM2">      1.00000000</i>
   <i name="PARAM3">      0.00000000</i>
  </separator>
  <separator name="model GW" >
   <i type="int" name="MODEL_GW">     0</i>
   <i name="MODEL_EPS0">     30.86917585</i>
   <i name="MODEL_ALPHA">      1.00000000</i>
  </separator>
  <separator name="linear response parameters" >
   <i type="logical" name="LEPSILON"> F  </i>
   <i type="logical" name="LRPA"> F  </i>
   <i type="logical" name="LNABLA"> F  </i>
   <i type="logical" name="LVEL"> F  </i>
   <i type="int" name="KINTER">     0</i>
   <i name="CSHIFT">      0.10000000</i>
   <i name="OMEGAMAX">     -1.00000000</i>
   <i name="DEG_THRESHOLD">      0.00200000</i>
   <i name="RTIME">     -0.10000000</i>
   <i name="WPLASMAI">      0.00000000</i>
   <v name="DFIELD">      0.00000000      0.00000000      0.00000000</v>
   <v name="WPLASMA">      0.00000000      0.00000000      0.00000000      0.00000000      0.00000000      0.00000000      0.00000000      0.00000000      0.00000000</v>
  </separator>
  <separator name="orbital magnetization" >
   <i type="logical" name="NUCIND"> F  </i>
   <v name="MAGPOS">      0.00000000      0.00000000      0.00000000</v>
   <i type="logical" name="LNICSALL"> T  </i>
   <i type="logical" name="ORBITALMAG"> F  </i>
   <i type="logical" name="LMAGBLOCH"> F  </i>
   <i type="logical" name="LCHIMAG"> F  </i>
   <i type="logical" name="LGAUGE"> T  </i>
   <i type="int" name="MAGATOM">     0</i>
   <v name="MAGDIPOL">      0.00000000      0.00000000      0.00000000</v>
   <v name="AVECCONST">      0.00000000      0.00000000      0.00000000</v>
  </separator>
  <separator name="response functions" >
   <i type="logical" name="LFINITE_TEMPERATURE"> F  </i>
   <i type="logical" name="LADDER"> F  </i>
   <i type="logical" name="LRPAFORCE"> F  </i>
   <i type="logical" name="LFXC"> F  </i>
   <i type="logical" name="LHARTREE"> T  </i>
   <i type="int" name="IBSE">     0</i>
   <v type="int" name="KPOINT">    -1     0     0     0</v>
   <i type="logical" name="LTCTC"> F  </i>
   <i type="logical" name="LTCTE"> F  </i>
   <i type="logical" name="LTETE"> F  </i>
   <i type="logical" name="LTRIPLET"> F  </i>
   <i type="logical" name="LFXCEPS"> F  </i>
   <i type="logical" name="LFXHEG"> F  </i>
   <i type="int" name="NATURALO">     2</i>
   <i type="logical" name="LHOLEGF"> F  </i>
   <i type="logical" name="L2ORDER"> F  </i>
   <i type="logical" name="LDMP1"> F  </i>
   <i type="logical" name="LMP2LT"> F  </i>
   <i type="logical" name="LSMP2LT"> F  </i>
   <i type="logical" name="LGWLF"> F  </i>
   <i name="ENCUTGW">     -2.00000000</i>
   <i name="ENCUTGWSOFT">     -2.00000000</i>
   <i name="ENCUTLF">     -1.00000000</i>
   <i type="logical" name="LESF_SPLINES"> F  </i>
   <i type="int" name="LMAXMP2">    -1</i>
   <i name="SCISSOR">      0.00000000</i>
   <i type="int" name="NOMEGA">     0</i>
   <i type="int" name="NOMEGAR">     0</i>
   <i type="int" name="NBANDSGW">    -1</i>
   <i type="int" name="NBANDSO">    -1</i>
   <i type="int" name="NBANDSV">    -1</i>
   <i type="int" name="NELM">   150</i>
   <i type="int" name="NELMHF">     1</i>
   <i type="int" name="DIM">     3</i>
   <i type="int" name="IESPILON">     4</i>
   <i type="int" name="ANTIRES">     0</i>
   <i name="OMEGAMAX">    -30.00000000</i>
   <i name="OMEGAMIN">    -30.00000000</i>
   <i name="OMEGATL">   -200.00000000</i>
   <i type="int" name="OMEGAGRID">     0</i>
   <i name="CSHIFT">     -0.10000000</i>
   <i type="logical" name="LSELFENERGY"> F  </i>
   <i type="logical" name="LSPECTRAL"> F  </i>
   <i type="logical" name="LSPECTRALGW"> F  </i>
   <i type="logical" name="LSINGLES"> F  </i>
   <i type="logical" name="LFERMIGW"> F  </i>
   <i type="logical" name="ODDONLYGW"> F  </i>
   <i type="logical" name="EVENONLYGW"> F  </i>
   <i type="int" name="NKREDLFX">     1</i>
   <i type="int" name="NKREDLFY">     1</i>
   <i type="int" name="NKREDLFZ">     1</i>
   <i type="int" name="MAXMEM">  2800</i>
   <i type="int" name="TELESCOPE">     0</i>
   <i type="int" name="NTAUPAR">    -1</i>
   <i type="int" name="NOMEGAPAR">    -1</i>
   <i name="DAMP_NEWTON">      0.80000001</i>
   <i name="LAMBDA">      1.00000000</i>
  </separator>
  <separator name="External order field" >
   <i name="OFIELD_KAPPA">      0.00000000</i>
   <v name="OFIELD_K">      0.00000000      0.00000000      0.00000000</v>
   <i name="OFIELD_Q6_NEAR">      0.00000000</i>
   <i name="OFIELD_Q6_FAR">      0.00000000</i>
   <i name="OFIELD_A">      0.00000000</i>
  </separator>
 </parameters>
 <atominfo>
  <atoms>     108 </atoms>
  <types>       1 </types>
  <array name="atoms" >
   <dimension dim="1">ion</dimension>
   <field type="string">element</field>
   <field type="int">atomtype</field>
   <set>
    <rc><c>Na</c><c>   1</c></rc>
    <rc><c>Na</c><c>   1</c></rc>
    <rc><c>Na</c><c>   1</c></rc>
    <rc><c>Na</c><c>   1</c></rc>
    <rc><c>Na</c><c>   1</c></rc>
    <rc><c>Na</c><c>   1</c></rc>
    <rc><c>Na</c><c>   1</c></rc>
    <rc><c>Na</c><c>   1</c></rc>
    <rc><c>Na</c><c>   1</c></rc>
    <rc><c>Na</c><c>   1</c></rc>
    <rc><c>Na</c><c>   1</c></rc>
    <rc><c>Na</c><c>   1</c></rc>
    <rc><c>Na</c><c>   1</c></rc>
    <rc><c>Na</c><c>   1</c></rc>
    <rc><c>Na</c><c>   1</c></rc>
    <rc><c>Na</c><c>   1</c></rc>
    <rc><c>Na</c><c>   1</c></rc>
    <rc><c>Na</c><c>   1</c></rc>
    <rc><c>Na</c><c>   1</c></rc>
    <rc><c>Na</c><c>   1</c></rc>
    <rc><c>Na</c><c>   1</c></rc>
    <rc><c>Na</c><c>   1</c></rc>
    <rc><c>Na</c><c>   1</c></rc>
    <rc><c>Na</c><c>   1</c></rc>
    <rc><c>Na</c><c>   1</c></rc>
    <rc><c>Na</c><c>   1</c></rc>
    <rc><c>Na</c><c>   1</c></rc>
    <rc><c>Na</c><c>   1</c></rc>
    <rc><c>Na</c><c>   1</c></rc>
    <rc><c>Na</c><c>   1</c></rc>
    <rc><c>Na</c><c>   1</c></rc>
    <rc><c>Na</c><c>   1</c></rc>
    <rc><c>Na</c><c>   1</c></rc>
    <rc><c>Na</c><c>   1</c></rc>
    <rc><c>Na</c><c>   1</c></rc>
    <rc><c>Na</c><c>   1</c></rc>
    <rc><c>Na</c><c>   1</c></rc>
    <rc><c>Na</c><c>   1</c></rc>
    <rc><c>Na</c><c>   1</c></rc>
    <rc><c>Na</c><c>   1</c></rc>
    <rc><c>Na</c><c>   1</c></rc>
    <rc><c>Na</c><c>   1</c></rc>
    <rc><c>Na</c><c>   1</c></rc>
    <rc><c>Na</c><c>   1</c></rc>
    <rc><c>Na</c><c>   1</c></rc>
    <rc><c>Na</c><c>   1</c></rc>
    <rc><c>Na</c><c>   1</c></rc>
    <rc><c>Na</c><c>   1</c></rc>
    <rc><c>Na</c><c>   1</c></rc>
    <rc><c>Na</c><c>   1</c></rc>
    <rc><c>Na</c><c>   1</c></rc>
    <rc><c>Na</c><c>   1</c></rc>
    <rc><c>Na</c><c>   1</c></rc>
    <rc><c>Na</c><c>   1</c></rc>
    <rc><c>Na</c><c>   1</c></rc>
    <rc><c>Na</c><c>   1</c></rc>
    <rc><c>Na</c><c>   1</c></rc>
    <rc><c>Na</c><c>   1</c></rc>
    <rc><c>Na</c><c>   1</c></rc>
    <rc><c>Na</c><c>   1</c></rc>
    <rc><c>Na</c><c>   1</c></rc>
    <rc><c>Na</c><c>   1</c></rc>
    <rc><c>Na</c><c>   1</c></rc>
    <rc><c>Na</c><c>   1</c></rc>
    <rc><c>Na</c><c>   1</c></rc>
    <rc><c>Na</c><c>   1</c></rc>
    <rc><c>Na</c><c>   1</c></rc>
    <rc><c>Na</c><c>   1</c></rc>
    <rc><c>Na</c><c>   1</c></rc>
    <rc><c>Na</c><c>   1</c></rc>
    <rc><c>Na</c><c>   1</c></rc>
    <rc><c>Na</c><c>   1</c></rc>
    <rc><c>Na</c><c>   1</c></rc>
    <rc><c>Na</c><c>   1</c></rc>
    <rc><c>Na</c><c>   1</c></rc>
    <rc><c>Na</c><c>   1</c></rc>
    <rc><c>Na</c><c>   1</c></rc>
    <rc><c>Na</c><c>   1</c></rc>
    <rc><c>Na</c><c>   1</c></rc>
    <rc><c>Na</c><c>   1</c></rc>
    <rc><c>Na</c><c>   1</c></rc>
    <rc><c>Na</c><c>   1</c></rc>
    <rc><c>Na</c><c>   1</c></rc>
    <rc><c>Na</c><c>   1</c></rc>
    <rc><c>Na</c><c>   1</c></rc>
    <rc><c>Na</c><c>   1</c></rc>
    <rc><c>Na</c><c>   1</c></rc>
    <rc><c>Na</c><c>   1</c></rc>
    <rc><c>Na</c><c>   1</c></rc>
    <rc><c>Na</c><c>   1</c></rc>
    <rc><c>Na</c><c>   1</c></rc>
    <rc><c>Na</c><c>   1</c></rc>
    <rc><c>Na</c><c>   1</c></rc>
    <rc><c>Na</c><c>   1</c></rc>
    <rc><c>Na</c><c>   1</c></rc>
    <rc><c>Na</c><c>   1</c></rc>
    <rc><c>Na</c><c>   1</c></rc>
    <rc><c>Na</c><c>   1</c></rc>
    <rc><c>Na</c><c>   1</c></rc>
    <rc><c>Na</c><c>   1</c></rc>
    <rc><c>Na</c><c>   1</c></rc>
    <rc><c>Na</c><c>   1</c></rc>
    <rc><c>Na</c><c>   1</c></rc>
    <rc><c>Na</c><c>   1</c></rc>
    <rc><c>Na</c><c>   1</c></rc>
    <rc><c>Na</c><c>   1</c></rc>
    <rc><c>Na</c><c>   1</c></rc>
    <rc><c>Na</c><c>   1</c></rc>
   </set>
  </array>
  <array name="atomtypes" >
   <dimension dim="1">type</dimension>
   <field type="int">atomspertype</field>
   <field type="string">element</field>
   <field>mass</field>
   <field>valence</field>
   <field type="string">pseudopotential</field>
   <set>
    <rc><c> 108</c><c>Na</c><c>     22.99000000</c><c>      1.00000000</c><c>  PAW_PBE Na 08Apr2002                  </c></rc>
   </set>
  </array>
 </atominfo>
 <structure name="initialpos" >
  <crystal>
   <varray name="basis" >
    <v>      -8.89989772       8.89989772       0.00000000 </v>
    <v>     -17.79979544      -0.00000000       0.00000000 </v>
    <v>       0.00000000       0.00000000      35.07498653 </v>
   </varray>
   <i name="volume">   5556.45165339 </i>
   <varray name="rec_basis" >
    <v>      -0.00000000       0.11236084       0.00000000 </v>
    <v>      -0.05618042      -0.05618042       0.00000000 </v>
    <v>       0.00000000       0.00000000       0.02851035 </v>
   </varray>
  </crystal>
  <varray name="positions" >
   <v>       0.00000000       0.00000003       0.23086898 </v>
   <v>       0.00000000       0.16666667       0.17106208 </v>
   <v>       0.00000000       0.00000003       0.35048277 </v>
   <v>       0.00000000       0.16666667       0.29067586 </v>
   <v>       0.00000000       0.00000003       0.47009656 </v>
   <v>       0.00000000       0.16666667       0.41028965 </v>
   <v>       0.00000000       0.00000003       0.58971035 </v>
   <v>       0.00000000       0.16666667       0.52990344 </v>
   <v>       0.00000000       0.00000003       0.70932414 </v>
   <v>       0.00000000       0.16666667       0.64951723 </v>
   <v>       0.00000000       0.00000003       0.82893792 </v>
   <v>       0.00000000       0.16666667       0.76913102 </v>
   <v>       0.33333333       0.00000003       0.23086898 </v>
   <v>       0.33333333       0.16666667       0.17106208 </v>
   <v>       0.33333333       0.00000003       0.35048277 </v>
   <v>       0.33333333       0.16666667       0.29067586 </v>
   <v>       0.33333333       0.00000003       0.47009656 </v>
   <v>       0.33333333       0.16666667       0.41028965 </v>
   <v>       0.33333333       0.00000003       0.58971035 </v>
   <v>       0.33333333       0.16666667       0.52990344 </v>
   <v>       0.33333333       0.00000003       0.70932414 </v>
   <v>       0.33333333       0.16666667       0.64951723 </v>
   <v>       0.33333333       0.00000003       0.82893792 </v>
   <v>       0.33333333       0.16666667       0.76913102 </v>
   <v>       0.00000000       0.33333337       0.23086898 </v>
   <v>       0.00000000       0.50000000       0.17106208 </v>
   <v>       0.00000000       0.33333337       0.35048277 </v>
   <v>       0.00000000       0.50000000       0.29067586 </v>
   <v>       0.00000000       0.33333337       0.47009656 </v>
   <v>       0.00000000       0.50000000       0.41028965 </v>
   <v>       0.00000000       0.33333337       0.58971035 </v>
   <v>       0.00000000       0.50000000       0.52990344 </v>
   <v>       0.00000000       0.33333337       0.70932414 </v>
   <v>       0.00000000       0.50000000       0.64951723 </v>
   <v>       0.00000000       0.33333337       0.82893792 </v>
   <v>       0.00000000       0.50000000       0.76913102 </v>
   <v>       0.66666667       0.00000003       0.23086898 </v>
   <v>       0.66666667       0.16666667       0.17106208 </v>
   <v>       0.66666667       0.00000003       0.35048277 </v>
   <v>       0.66666667       0.16666667       0.29067586 </v>
   <v>       0.66666667       0.00000003       0.47009656 </v>
   <v>       0.66666667       0.16666667       0.41028965 </v>
   <v>       0.66666667       0.00000003       0.58971035 </v>
   <v>       0.66666667       0.16666667       0.52990344 </v>
   <v>       0.66666667       0.00000003       0.70932414 </v>
   <v>       0.66666667       0.16666667       0.64951723 </v>
   <v>       0.66666667       0.00000003       0.82893792 </v>
   <v>       0.66666667       0.16666667       0.76913102 </v>
   <v>       0.33333333       0.33333337       0.23086898 </v>
   <v>       0.33333333       0.50000000       0.17106208 </v>
   <v>       0.33333333       0.33333337       0.35048277 </v>
   <v>       0.33333333       0.50000000       0.29067586 </v>
   <v>       0.33333333       0.33333337       0.47009656 </v>
   <v>       0.33333333       0.50000000       0.41028965 </v>
   <v>       0.33333333       0.33333337       0.58971035 </v>
   <v>       0.33333333       0.50000000       0.52990344 </v>
   <v>       0.33333333       0.33333337       0.70932414 </v>
   <v>       0.33333333       0.50000000       0.64951723 </v>
   <v>       0.33333333       0.33333337       0.82893792 </v>
   <v>       0.33333333       0.50000000       0.76913102 </v>
   <v>       0.00000000       0.66666670       0.23086898 </v>
   <v>       0.00000000       0.83333333       0.17106208 </v>
   <v>       0.00000000       0.66666670       0.35048277 </v>
   <v>       0.00000000       0.83333333       0.29067586 </v>
   <v>       0.00000000       0.66666670       0.47009656 </v>
   <v>       0.00000000       0.83333333       0.41028965 </v>
   <v>       0.00000000       0.66666670       0.58971035 </v>
   <v>       0.00000000       0.83333333       0.52990344 </v>
   <v>       0.00000000       0.66666670       0.70932414 </v>
   <v>       0.00000000       0.83333333       0.64951723 </v>
   <v>       0.00000000       0.66666670       0.82893792 </v>
   <v>       0.00000000       0.83333333       0.76913102 </v>
   <v>       0.66666667       0.33333337       0.23086898 </v>
   <v>       0.66666667       0.50000000       0.17106208 </v>
   <v>       0.66666667       0.33333337       0.35048277 </v>
   <v>       0.66666667       0.50000000       0.29067586 </v>
   <v>       0.66666667       0.33333337       0.47009656 </v>
   <v>       0.66666667       0.50000000       0.41028965 </v>
   <v>       0.66666667       0.33333337       0.58971035 </v>
   <v>       0.66666667       0.50000000       0.52990344 </v>
   <v>       0.66666667       0.33333337       0.70932414 </v>
   <v>       0.66666667       0.50000000       0.64951723 </v>
   <v>       0.66666667       0.33333337       0.82893792 </v>
   <v>       0.66666667       0.50000000       0.76913102 </v>
   <v>       0.33333333       0.66666670       0.23086898 </v>
   <v>       0.33333333       0.83333333       0.17106208 </v>
   <v>       0.33333333       0.66666670       0.35048277 </v>
   <v>       0.33333333       0.83333333       0.29067586 </v>
   <v>       0.33333333       0.66666670       0.47009656 </v>
   <v>       0.33333333       0.83333333       0.41028965 </v>
   <v>       0.33333333       0.66666670       0.58971035 </v>
   <v>       0.33333333       0.83333333       0.52990344 </v>
   <v>       0.33333333       0.66666670       0.70932414 </v>
   <v>       0.33333333       0.83333333       0.64951723 </v>
   <v>       0.33333333       0.66666670       0.82893792 </v>
   <v>       0.33333333       0.83333333       0.76913102 </v>
   <v>       0.66666667       0.66666670       0.23086898 </v>
   <v>       0.66666667       0.83333333       0.17106208 </v>
   <v>       0.66666667       0.66666670       0.35048277 </v>
   <v>       0.66666667       0.83333333       0.29067586 </v>
   <v>       0.66666667       0.66666670       0.47009656 </v>
   <v>       0.66666667       0.83333333       0.41028965 </v>
   <v>       0.66666667       0.66666670       0.58971035 </v>
   <v>       0.66666667       0.83333333       0.52990344 </v>
   <v>       0.66666667       0.66666670       0.70932414 </v>
   <v>       0.66666667       0.83333333       0.64951723 </v>
   <v>       0.66666667       0.66666670       0.82893792 </v>
   <v>       0.66666667       0.83333333       0.76913102 </v>
  </varray>
 </structure>
 <calculation>
  <scstep>
   <time name="dav">    1.18    1.20</time>
   <time name="total">    1.29    1.31</time>
   <dipole>
    <v name="dipole">      0.00000000       0.00000000       0.00000000 </v>
    <i name="Tr[quadrupol]">  -4009.16669592 </i>
    <i name="Echarged">      0.00000000 </i>
    <i name="Edipol_quadrupol">      0.00000000 </i>
    <i name="Eion">      0.00000000 </i>
   </dipole>
   <energy>
    <i name="alphaZ">    -38.44870321 </i>
    <i name="ewald">    908.66800710 </i>
    <i name="hartreedc">  -1454.57130432 </i>
    <i name="XCdc">  -3952.00757421 </i>
    <i name="pawpsdc">   4306.62377697 </i>
    <i name="pawaedc">   -255.70647382 </i>
    <i name="eentropy">     -0.12701333 </i>
    <i name="bandstr">    -68.73049838 </i>
    <i name="atom">    557.06934077 </i>
    <i name="e_fr_energy">      2.76955756 </i>
    <i name="e_wo_entrp">      2.89657090 </i>
    <i name="e_0_energy">      2.83306423 </i>
   </energy>
  </scstep>
  <scstep>
   <time name="dav">    1.38    1.39</time>
   <time name="total">    1.38    1.39</time>
   <dipole>
    <v name="dipole">      0.00000000       0.00000000       0.00000000 </v>
    <i name="Tr[quadrupol]">  -4009.16669592 </i>
    <i name="Echarged">      0.00000000 </i>
    <i name="Edipol_quadrupol">      0.00000000 </i>
    <i name="Eion">      0.00000000 </i>
   </dipole>
   <energy>
    <i name="e_fr_energy">   -132.26843480 </i>
    <i name="e_wo_entrp">   -132.03811546 </i>
    <i name="e_0_energy">   -132.15327513 </i>
   </energy>
  </scstep>
  <scstep>
   <time name="dav">    1.70    1.70</time>
   <time name="total">    1.70    1.71</time>
   <dipole>
    <v name="dipole">      0.00000000       0.00000000       0.00000000 </v>
    <i name="Tr[quadrupol]">  -4009.16669592 </i>
    <i name="Echarged">      0.00000000 </i>
    <i name="Edipol_quadrupol">      0.00000000 </i>
    <i name="Eion">      0.00000000 </i>
   </dipole>
   <energy>
    <i name="e_fr_energy">   -141.68100034 </i>
    <i name="e_wo_entrp">   -141.37383516 </i>
    <i name="e_0_energy">   -141.52741775 </i>
   </energy>
  </scstep>
  <scstep>
   <time name="dav">    1.65    1.66</time>
   <time name="total">    1.65    1.66</time>
   <dipole>
    <v name="dipole">      0.00000000       0.00000000       0.00000000 </v>
    <i name="Tr[quadrupol]">  -4009.16669592 </i>
    <i name="Echarged">      0.00000000 </i>
    <i name="Edipol_quadrupol">      0.00000000 </i>
    <i name="Eion">      0.00000000 </i>
   </dipole>
   <energy>
    <i name="e_fr_energy">   -142.19056491 </i>
    <i name="e_wo_entrp">   -141.88299474 </i>
    <i name="e_0_energy">   -142.03677983 </i>
   </energy>
  </scstep>
  <scstep>
   <time name="dav">    1.73    1.79</time>
   <time name="total">    1.78    1.84</time>
   <dipole>
    <v name="dipole">      0.00000000       0.00000000       0.00000000 </v>
    <i name="Tr[quadrupol]">  -4009.16669592 </i>
    <i name="Echarged">      0.00000000 </i>
    <i name="Edipol_quadrupol">      0.00000000 </i>
    <i name="Eion">      0.00000000 </i>
   </dipole>
   <energy>
    <i name="e_fr_energy">   -142.22643610 </i>
    <i name="e_wo_entrp">   -141.91882430 </i>
    <i name="e_0_energy">   -142.07263020 </i>
   </energy>
  </scstep>
  <scstep>
   <time name="diag">    0.20    0.21</time>
   <time name="diis">    0.56    0.57</time>
   <time name="orth">    0.04    0.04</time>
   <time name="total">    0.96    0.98</time>
   <dipole>
    <v name="dipole">      0.00000000       0.00000000      -0.00001437 </v>
    <i name="Tr[quadrupol]">  -4012.27406964 </i>
    <i name="Echarged">      0.00000000 </i>
    <i name="Edipol_quadrupol">      0.00000000 </i>
    <i name="Eion">      0.00000000 </i>
   </dipole>
   <energy>
    <i name="e_fr_energy">   -140.32059856 </i>
    <i name="e_wo_entrp">   -139.99790767 </i>
    <i name="e_0_energy">   -140.15925312 </i>
   </energy>
  </scstep>
  <scstep>
   <time name="diag">    0.21    0.21</time>
   <time name="diis">    0.50    0.50</time>
   <time name="orth">    0.03    0.03</time>
   <time name="total">    0.91    0.92</time>
   <dipole>
    <v name="dipole">      0.00000000       0.00000000       0.00001935 </v>
    <i name="Tr[quadrupol]">  -4020.89670259 </i>
    <i name="Echarged">      0.00000000 </i>
    <i name="Edipol_quadrupol">      0.00000000 </i>
    <i name="Eion">      0.00000000 </i>
   </dipole>
   <energy>
    <i name="e_fr_energy">   -138.91739694 </i>
    <i name="e_wo_entrp">   -138.60228606 </i>
    <i name="e_0_energy">   -138.75984150 </i>
   </energy>
  </scstep>
  <scstep>
   <time name="diag">    0.21    0.21</time>
   <time name="diis">    0.50    0.51</time>
   <time name="orth">    0.03    0.03</time>
   <time name="total">    0.96    1.02</time>
   <dipole>
    <v name="dipole">      0.00000000       0.00000000       0.00000432 </v>
    <i name="Tr[quadrupol]">  -4028.40054419 </i>
    <i name="Echarged">      0.00000000 </i>
    <i name="Edipol_quadrupol">      0.00000000 </i>
    <i name="Eion">      0.00000000 </i>
   </dipole>
   <energy>
    <i name="e_fr_energy">   -138.70586351 </i>
    <i name="e_wo_entrp">   -138.39048483 </i>
    <i name="e_0_energy">   -138.54817417 </i>
   </energy>
  </scstep>
  <scstep>
   <time name="diag">    0.20    0.20</time>
   <time name="diis">    0.51    0.51</time>
   <time name="orth">    0.03    0.03</time>
   <time name="total">    0.89    0.90</time>
   <dipole>
    <v name="dipole">      0.00000000       0.00000000       0.00004604 </v>
    <i name="Tr[quadrupol]">  -4038.84404043 </i>
    <i name="Echarged">      0.00000000 </i>
    <i name="Edipol_quadrupol">      0.00000000 </i>
    <i name="Eion">      0.00000000 </i>
   </dipole>
   <energy>
    <i name="e_fr_energy">   -138.55774965 </i>
    <i name="e_wo_entrp">   -138.23873365 </i>
    <i name="e_0_energy">   -138.39824165 </i>
   </energy>
  </scstep>
  <scstep>
   <time name="diag">    0.24    0.24</time>
   <time name="diis">    0.53    0.54</time>
   <time name="orth">    0.03    0.03</time>
   <time name="total">    0.96    0.96</time>
   <dipole>
    <v name="dipole">      0.00000000       0.00000000       0.00001805 </v>
    <i name="Tr[quadrupol]">  -4057.22156305 </i>
    <i name="Echarged">      0.00000000 </i>
    <i name="Edipol_quadrupol">      0.00000000 </i>
    <i name="Eion">      0.00000000 </i>
   </dipole>
   <energy>
    <i name="e_fr_energy">   -138.44031896 </i>
    <i name="e_wo_entrp">   -138.11647686 </i>
    <i name="e_0_energy">   -138.27839791 </i>
   </energy>
  </scstep>
  <scstep>
   <time name="diag">    0.50    0.50</time>
   <time name="diis">    0.49    0.50</time>
   <time name="orth">    0.04    0.04</time>
   <time name="total">    1.18    1.19</time>
   <dipole>
    <v name="dipole">      0.00000000       0.00000000      -0.00000204 </v>
    <i name="Tr[quadrupol]">  -4078.35115499 </i>
    <i name="Echarged">      0.00000000 </i>
    <i name="Edipol_quadrupol">      0.00000000 </i>
    <i name="Eion">      0.00000000 </i>
   </dipole>
   <energy>
    <i name="e_fr_energy">   -138.32321519 </i>
    <i name="e_wo_entrp">   -137.99606404 </i>
    <i name="e_0_energy">   -138.15963961 </i>
   </energy>
  </scstep>
  <scstep>
   <time name="diag">    0.20    0.21</time>
   <time name="diis">    0.50    0.51</time>
   <time name="orth">    0.04    0.04</time>
   <time name="total">    0.89    0.90</time>
   <dipole>
    <v name="dipole">      0.00000000       0.00000000      -0.00001527 </v>
    <i name="Tr[quadrupol]">  -4086.77252385 </i>
    <i name="Echarged">      0.00000000 </i>
    <i name="Edipol_quadrupol">      0.00000000 </i>
    <i name="Eion">      0.00000000 </i>
   </dipole>
   <energy>
    <i name="e_fr_energy">   -138.37261969 </i>
    <i name="e_wo_entrp">   -138.04609517 </i>
    <i name="e_0_energy">   -138.20935743 </i>
   </energy>
  </scstep>
  <scstep>
   <time name="diag">    0.20    0.20</time>
   <time name="diis">    0.54    0.55</time>
   <time name="orth">    0.04    0.04</time>
   <time name="total">    0.93    0.93</time>
   <dipole>
    <v name="dipole">      0.00000000       0.00000000       0.00000503 </v>
    <i name="Tr[quadrupol]">  -4087.53933995 </i>
    <i name="Echarged">      0.00000000 </i>
    <i name="Edipol_quadrupol">      0.00000000 </i>
    <i name="Eion">      0.00000000 </i>
   </dipole>
   <energy>
    <i name="e_fr_energy">   -138.41995540 </i>
    <i name="e_wo_entrp">   -138.09201495 </i>
    <i name="e_0_energy">   -138.25598518 </i>
   </energy>
  </scstep>
  <scstep>
   <time name="diag">    0.20    0.20</time>
   <time name="diis">    0.53    0.53</time>
   <time name="orth">    0.03    0.03</time>
   <time name="total">    0.90    0.91</time>
   <dipole>
    <v name="dipole">      0.00000000       0.00000000       0.00001278 </v>
    <i name="Tr[quadrupol]">  -4094.02191935 </i>
    <i name="Echarged">      0.00000000 </i>
    <i name="Edipol_quadrupol">      0.00000000 </i>
    <i name="Eion">      0.00000000 </i>
   </dipole>
   <energy>
    <i name="e_fr_energy">   -138.42730690 </i>
    <i name="e_wo_entrp">   -138.09622717 </i>
    <i name="e_0_energy">   -138.26176704 </i>
   </energy>
  </scstep>
  <scstep>
   <time name="diag">    0.20    0.20</time>
   <time name="diis">    0.53    0.53</time>
   <time name="orth">    0.15    0.16</time>
   <time name="total">    1.08    1.09</time>
   <dipole>
    <v name="dipole">      0.00000000       0.00000000       0.00001819 </v>
    <i name="Tr[quadrupol]">  -4091.91704538 </i>
    <i name="Echarged">      0.00000000 </i>
    <i name="Edipol_quadrupol">      0.00000000 </i>
    <i name="Eion">      0.00000000 </i>
   </dipole>
   <energy>
    <i name="e_fr_energy">   -138.43796454 </i>
    <i name="e_wo_entrp">   -138.10808190 </i>
    <i name="e_0_energy">   -138.27302322 </i>
   </energy>
  </scstep>
  <scstep>
   <time name="diag">    0.21    0.21</time>
   <time name="diis">    0.52    0.52</time>
   <time name="orth">    0.04    0.04</time>
   <time name="total">    0.93    0.94</time>
   <dipole>
    <v name="dipole">      0.00000000       0.00000000       0.00001762 </v>
    <i name="Tr[quadrupol]">  -4092.71869772 </i>
    <i name="Echarged">      0.00000000 </i>
    <i name="Edipol_quadrupol">      0.00000000 </i>
    <i name="Eion">      0.00000000 </i>
   </dipole>
   <energy>
    <i name="e_fr_energy">   -138.43822537 </i>
    <i name="e_wo_entrp">   -138.10789294 </i>
    <i name="e_0_energy">   -138.27305916 </i>
   </energy>
  </scstep>
  <scstep>
   <time name="diag">    0.22    0.22</time>
   <time name="diis">    0.56    0.56</time>
   <time name="orth">    0.04    0.04</time>
   <time name="total">    0.97    0.98</time>
   <dipole>
    <v name="dipole">      0.00000000       0.00000000       0.00001118 </v>
    <i name="Tr[quadrupol]">  -4092.60330860 </i>
    <i name="Echarged">      0.00000000 </i>
    <i name="Edipol_quadrupol">      0.00000000 </i>
    <i name="Eion">      0.00000000 </i>
   </dipole>
   <energy>
    <i name="e_fr_energy">   -138.43829323 </i>
    <i name="e_wo_entrp">   -138.10790195 </i>
    <i name="e_0_energy">   -138.27309759 </i>
   </energy>
  </scstep>
  <scstep>
   <time name="diag">    0.28    0.28</time>
   <time name="diis">    0.55    0.55</time>
   <time name="orth">    0.04    0.04</time>
   <time name="total">    1.03    1.04</time>
   <dipole>
    <v name="dipole">      0.00000000       0.00000000       0.00000414 </v>
    <i name="Tr[quadrupol]">  -4092.70190719 </i>
    <i name="Echarged">      0.00000000 </i>
    <i name="Edipol_quadrupol">      0.00000000 </i>
    <i name="Eion">      0.00000000 </i>
   </dipole>
   <energy>
    <i name="e_fr_energy">   -138.43829039 </i>
    <i name="e_wo_entrp">   -138.10786785 </i>
    <i name="e_0_energy">   -138.27307912 </i>
   </energy>
  </scstep>
  <scstep>
   <time name="diag">    0.20    0.20</time>
   <time name="diis">    0.58    0.58</time>
   <time name="orth">    0.04    0.04</time>
   <time name="total">    0.96    0.96</time>
   <dipole>
    <v name="dipole">      0.00000000       0.00000000      -0.00000000 </v>
    <i name="Tr[quadrupol]">  -4092.73238206 </i>
    <i name="Echarged">      0.00000000 </i>
    <i name="Edipol_quadrupol">      0.00000000 </i>
    <i name="Eion">      0.00000000 </i>
   </dipole>
   <energy>
    <i name="e_fr_energy">   -138.43829187 </i>
    <i name="e_wo_entrp">   -138.10782951 </i>
    <i name="e_0_energy">   -138.27306069 </i>
   </energy>
  </scstep>
  <scstep>
   <time name="diag">    0.47    0.49</time>
   <time name="diis">    0.63    0.64</time>
   <time name="orth">    0.03    0.03</time>
   <time name="total">    1.29    1.31</time>
   <dipole>
    <v name="dipole">      0.00000000       0.00000000      -0.00000186 </v>
    <i name="Tr[quadrupol]">  -4092.72303952 </i>
    <i name="Echarged">      0.00000000 </i>
    <i name="Edipol_quadrupol">      0.00000000 </i>
    <i name="Eion">      0.00000000 </i>
   </dipole>
   <energy>
    <i name="e_fr_energy">   -138.43829222 </i>
    <i name="e_wo_entrp">   -138.10783681 </i>
    <i name="e_0_energy">   -138.27306451 </i>
   </energy>
  </scstep>
  <scstep>
   <time name="diag">    0.20    0.20</time>
   <time name="diis">    0.59    0.59</time>
   <time name="orth">    0.04    0.04</time>
   <time name="total">    0.98    0.98</time>
   <dipole>
    <v name="dipole">      0.00000000       0.00000000      -0.00000221 </v>
    <i name="Tr[quadrupol]">  -4092.71610135 </i>
    <i name="Echarged">      0.00000000 </i>
    <i name="Edipol_quadrupol">      0.00000000 </i>
    <i name="Eion">      0.00000000 </i>
   </dipole>
   <energy>
    <i name="e_fr_energy">   -138.43829223 </i>
    <i name="e_wo_entrp">   -138.10784244 </i>
    <i name="e_0_energy">   -138.27306733 </i>
   </energy>
  </scstep>
  <scstep>
   <time name="diag">    0.34    0.35</time>
   <time name="diis">    0.52    0.52</time>
   <time name="orth">    0.04    0.04</time>
   <time name="total">    0.99    1.00</time>
   <dipole>
    <v name="dipole">      0.00000000       0.00000000      -0.00000212 </v>
    <i name="Tr[quadrupol]">  -4092.71640857 </i>
    <i name="Echarged">      0.00000000 </i>
    <i name="Edipol_quadrupol">      0.00000000 </i>
    <i name="Eion">      0.00000000 </i>
   </dipole>
   <energy>
    <i name="alphaZ">    -38.44870321 </i>
    <i name="ewald">    908.66800710 </i>
    <i name="hartreedc">  -1506.93915098 </i>
    <i name="XCdc">  -3944.94126271 </i>
    <i name="pawpsdc">   4258.83897598 </i>
    <i name="pawaedc">   -208.16671627 </i>
    <i name="eentropy">     -0.33044771 </i>
    <i name="bandstr">   -164.18833520 </i>
    <i name="atom">    557.06934077 </i>
    <i name="e_fr_energy">   -138.43829223 </i>
    <i name="e_wo_entrp">   -138.10784452 </i>
    <i name="e_0_energy">   -138.27306838 </i>
   </energy>
  </scstep>
  <structure>
   <crystal>
    <varray name="basis" >
     <v>      -8.89989772       8.89989772       0.00000000 </v>
     <v>     -17.79979544      -0.00000000       0.00000000 </v>
     <v>       0.00000000       0.00000000      35.07498653 </v>
    </varray>
    <i name="volume">   5556.45165339 </i>
    <varray name="rec_basis" >
     <v>      -0.00000000       0.11236084       0.00000000 </v>
     <v>      -0.05618042      -0.05618042       0.00000000 </v>
     <v>       0.00000000       0.00000000       0.02851035 </v>
    </varray>
   </crystal>
   <varray name="positions" >
    <v>       0.00000000       0.00000003       0.23086898 </v>
    <v>       0.00000000       0.16666667       0.17106208 </v>
    <v>       0.00000000       0.00000003       0.35048277 </v>
    <v>       0.00000000       0.16666667       0.29067586 </v>
    <v>       0.00000000       0.00000003       0.47009656 </v>
    <v>       0.00000000       0.16666667       0.41028965 </v>
    <v>       0.00000000       0.00000003       0.58971035 </v>
    <v>       0.00000000       0.16666667       0.52990344 </v>
    <v>       0.00000000       0.00000003       0.70932414 </v>
    <v>       0.00000000       0.16666667       0.64951723 </v>
    <v>       0.00000000       0.00000003       0.82893792 </v>
    <v>       0.00000000       0.16666667       0.76913102 </v>
    <v>       0.33333333       0.00000003       0.23086898 </v>
    <v>       0.33333333       0.16666667       0.17106208 </v>
    <v>       0.33333333       0.00000003       0.35048277 </v>
    <v>       0.33333333       0.16666667       0.29067586 </v>
    <v>       0.33333333       0.00000003       0.47009656 </v>
    <v>       0.33333333       0.16666667       0.41028965 </v>
    <v>       0.33333333       0.00000003       0.58971035 </v>
    <v>       0.33333333       0.16666667       0.52990344 </v>
    <v>       0.33333333       0.00000003       0.70932414 </v>
    <v>       0.33333333       0.16666667       0.64951723 </v>
    <v>       0.33333333       0.00000003       0.82893792 </v>
    <v>       0.33333333       0.16666667       0.76913102 </v>
    <v>       0.00000000       0.33333337       0.23086898 </v>
    <v>       0.00000000       0.50000000       0.17106208 </v>
    <v>       0.00000000       0.33333337       0.35048277 </v>
    <v>       0.00000000       0.50000000       0.29067586 </v>
    <v>       0.00000000       0.33333337       0.47009656 </v>
    <v>       0.00000000       0.50000000       0.41028965 </v>
    <v>       0.00000000       0.33333337       0.58971035 </v>
    <v>       0.00000000       0.50000000       0.52990344 </v>
    <v>       0.00000000       0.33333337       0.70932414 </v>
    <v>       0.00000000       0.50000000       0.64951723 </v>
    <v>       0.00000000       0.33333337       0.82893792 </v>
    <v>       0.00000000       0.50000000       0.76913102 </v>
    <v>       0.66666667       0.00000003       0.23086898 </v>
    <v>       0.66666667       0.16666667       0.17106208 </v>
    <v>       0.66666667       0.00000003       0.35048277 </v>
    <v>       0.66666667       0.16666667       0.29067586 </v>
    <v>       0.66666667       0.00000003       0.47009656 </v>
    <v>       0.66666667       0.16666667       0.41028965 </v>
    <v>       0.66666667       0.00000003       0.58971035 </v>
    <v>       0.66666667       0.16666667       0.52990344 </v>
    <v>       0.66666667       0.00000003       0.70932414 </v>
    <v>       0.66666667       0.16666667       0.64951723 </v>
    <v>       0.66666667       0.00000003       0.82893792 </v>
    <v>       0.66666667       0.16666667       0.76913102 </v>
    <v>       0.33333333       0.33333337       0.23086898 </v>
    <v>       0.33333333       0.50000000       0.17106208 </v>
    <v>       0.33333333       0.33333337       0.35048277 </v>
    <v>       0.33333333       0.50000000       0.29067586 </v>
    <v>       0.33333333       0.33333337       0.47009656 </v>
    <v>       0.33333333       0.50000000       0.41028965 </v>
    <v>       0.33333333       0.33333337       0.58971035 </v>
    <v>       0.33333333       0.50000000       0.52990344 </v>
    <v>       0.33333333       0.33333337       0.70932414 </v>
    <v>       0.33333333       0.50000000       0.64951723 </v>
    <v>       0.33333333       0.33333337       0.82893792 </v>
    <v>       0.33333333       0.50000000       0.76913102 </v>
    <v>       0.00000000       0.66666670       0.23086898 </v>
    <v>       0.00000000       0.83333333       0.17106208 </v>
    <v>       0.00000000       0.66666670       0.35048277 </v>
    <v>       0.00000000       0.83333333       0.29067586 </v>
    <v>       0.00000000       0.66666670       0.47009656 </v>
    <v>       0.00000000       0.83333333       0.41028965 </v>
    <v>       0.00000000       0.66666670       0.58971035 </v>
    <v>       0.00000000       0.83333333       0.52990344 </v>
    <v>       0.00000000       0.66666670       0.70932414 </v>
    <v>       0.00000000       0.83333333       0.64951723 </v>
    <v>       0.00000000       0.66666670       0.82893792 </v>
    <v>       0.00000000       0.83333333       0.76913102 </v>
    <v>       0.66666667       0.33333337       0.23086898 </v>
    <v>       0.66666667       0.50000000       0.17106208 </v>
    <v>       0.66666667       0.33333337       0.35048277 </v>
    <v>       0.66666667       0.50000000       0.29067586 </v>
    <v>       0.66666667       0.33333337       0.47009656 </v>
    <v>       0.66666667       0.50000000       0.41028965 </v>
    <v>       0.66666667       0.33333337       0.58971035 </v>
    <v>       0.66666667       0.50000000       0.52990344 </v>
    <v>       0.66666667       0.33333337       0.70932414 </v>
    <v>       0.66666667       0.50000000       0.64951723 </v>
    <v>       0.66666667       0.33333337       0.82893792 </v>
    <v>       0.66666667       0.50000000       0.76913102 </v>
    <v>       0.33333333       0.66666670       0.23086898 </v>
    <v>       0.33333333       0.83333333       0.17106208 </v>
    <v>       0.33333333       0.66666670       0.35048277 </v>
    <v>       0.33333333       0.83333333       0.29067586 </v>
    <v>       0.33333333       0.66666670       0.47009656 </v>
    <v>       0.33333333       0.83333333       0.41028965 </v>
    <v>       0.33333333       0.66666670       0.58971035 </v>
    <v>       0.33333333       0.83333333       0.52990344 </v>
    <v>       0.33333333       0.66666670       0.70932414 </v>
    <v>       0.33333333       0.83333333       0.64951723 </v>
    <v>       0.33333333       0.66666670       0.82893792 </v>
    <v>       0.33333333       0.83333333       0.76913102 </v>
    <v>       0.66666667       0.66666670       0.23086898 </v>
    <v>       0.66666667       0.83333333       0.17106208 </v>
    <v>       0.66666667       0.66666670       0.35048277 </v>
    <v>       0.66666667       0.83333333       0.29067586 </v>
    <v>       0.66666667       0.66666670       0.47009656 </v>
    <v>       0.66666667       0.83333333       0.41028965 </v>
    <v>       0.66666667       0.66666670       0.58971035 </v>
    <v>       0.66666667       0.83333333       0.52990344 </v>
    <v>       0.66666667       0.66666670       0.70932414 </v>
    <v>       0.66666667       0.83333333       0.64951723 </v>
    <v>       0.66666667       0.66666670       0.82893792 </v>
    <v>       0.66666667       0.83333333       0.76913102 </v>
   </varray>
  </structure>
  <varray name="forces" >
   <v>      -0.00000012       0.00000004       0.02414413 </v>
   <v>       0.00000025      -0.00000000       0.04620237 </v>
   <v>      -0.00000011       0.00000003       0.00719536 </v>
   <v>       0.00000013       0.00000002      -0.04465902 </v>
   <v>      -0.00000014      -0.00000006       0.01013173 </v>
   <v>       0.00000010       0.00000001       0.00368297 </v>
   <v>      -0.00000015      -0.00000002      -0.00368304 </v>
   <v>       0.00000003      -0.00000000      -0.01013177 </v>
   <v>      -0.00000014       0.00000007       0.04465914 </v>
   <v>       0.00000007      -0.00000004      -0.00719533 </v>
   <v>      -0.00000030      -0.00000010      -0.04620250 </v>
   <v>       0.00000015      -0.00000001      -0.02414409 </v>
   <v>       0.00555574       0.00133330       0.01940232 </v>
   <v>       0.00206143      -0.00211716       0.05722753 </v>
   <v>      -0.00059912       0.00394250      -0.00374495 </v>
   <v>       0.00541183       0.00282882      -0.04089684 </v>
   <v>       0.00193872       0.00274294      -0.00129118 </v>
   <v>      -0.00259646      -0.00302866       0.01449788 </v>
   <v>      -0.00259669      -0.00302864      -0.01449784 </v>
   <v>       0.00193894       0.00274296       0.00129107 </v>
   <v>       0.00541168       0.00282883       0.04089693 </v>
   <v>      -0.00059901       0.00394249       0.00374509 </v>
   <v>       0.00206098      -0.00211725      -0.05722763 </v>
   <v>       0.00555586       0.00133337      -0.01940223 </v>
   <v>      -0.00000018      -0.00000013       0.02414415 </v>
   <v>       0.00000018      -0.00000000       0.04620230 </v>
   <v>      -0.00000001      -0.00000007       0.00719529 </v>
   <v>      -0.00000004      -0.00000007      -0.04465920 </v>
   <v>      -0.00000006       0.00000004       0.01013170 </v>
   <v>       0.00000003       0.00000004       0.00368300 </v>
   <v>      -0.00000010       0.00000002      -0.00368305 </v>
   <v>       0.00000015       0.00000006      -0.01013179 </v>
   <v>      -0.00000011      -0.00000000       0.04465900 </v>
   <v>       0.00000004      -0.00000001      -0.00719531 </v>
   <v>      -0.00000009       0.00000004      -0.04620214 </v>
   <v>       0.00000010      -0.00000006      -0.02414423 </v>
   <v>      -0.00555582      -0.00133326       0.01940221 </v>
   <v>      -0.00206090       0.00211723       0.05722749 </v>
   <v>       0.00059906      -0.00394249      -0.00374503 </v>
   <v>      -0.00541166      -0.00282879      -0.04089689 </v>
   <v>      -0.00193893      -0.00274301      -0.00129109 </v>
   <v>       0.00259661       0.00302864       0.01449785 </v>
   <v>       0.00259641       0.00302862      -0.01449787 </v>
   <v>      -0.00193877      -0.00274298       0.00129106 </v>
   <v>      -0.00541176      -0.00282877       0.04089686 </v>
   <v>       0.00059908      -0.00394248       0.00374504 </v>
   <v>      -0.00206131       0.00211719      -0.05722775 </v>
   <v>      -0.00555565      -0.00133326      -0.01940228 </v>
   <v>       0.00555562       0.00133329       0.01940231 </v>
   <v>       0.00206148      -0.00211713       0.05722728 </v>
   <v>      -0.00059924       0.00394245      -0.00374497 </v>
   <v>       0.00541172       0.00282886      -0.04089695 </v>
   <v>       0.00193887       0.00274300      -0.00129109 </v>
   <v>      -0.00259646      -0.00302860       0.01449776 </v>
   <v>      -0.00259664      -0.00302865      -0.01449777 </v>
   <v>       0.00193892       0.00274299       0.00129112 </v>
   <v>       0.00541161       0.00282881       0.04089685 </v>
   <v>      -0.00059896       0.00394245       0.00374499 </v>
   <v>       0.00206096      -0.00211716      -0.05722728 </v>
   <v>       0.00555583       0.00133337      -0.01940248 </v>
   <v>      -0.00000009       0.00000003       0.02414414 </v>
   <v>       0.00000035      -0.00000008       0.04620251 </v>
   <v>      -0.00000007      -0.00000000       0.00719531 </v>
   <v>       0.00000011       0.00000001      -0.04465905 </v>
   <v>      -0.00000013       0.00000001       0.01013171 </v>
   <v>       0.00000007      -0.00000002       0.00368297 </v>
   <v>      -0.00000010      -0.00000001      -0.00368291 </v>
   <v>       0.00000003      -0.00000000      -0.01013170 </v>
   <v>      -0.00000011       0.00000000       0.04465899 </v>
   <v>       0.00000010       0.00000003      -0.00719518 </v>
   <v>      -0.00000025      -0.00000009      -0.04620223 </v>
   <v>      -0.00000003      -0.00000001      -0.02414414 </v>
   <v>      -0.00555581      -0.00133331       0.01940237 </v>
   <v>      -0.00206079       0.00211723       0.05722739 </v>
   <v>       0.00059893      -0.00394246      -0.00374492 </v>
   <v>      -0.00541161      -0.00282887      -0.04089681 </v>
   <v>      -0.00193897      -0.00274295      -0.00129111 </v>
   <v>       0.00259666       0.00302866       0.01449781 </v>
   <v>       0.00259645       0.00302861      -0.01449779 </v>
   <v>      -0.00193876      -0.00274295       0.00129112 </v>
   <v>      -0.00541181      -0.00282884       0.04089690 </v>
   <v>       0.00059920      -0.00394254       0.00374509 </v>
   <v>      -0.00206117       0.00211733      -0.05722739 </v>
   <v>      -0.00555567      -0.00133330      -0.01940240 </v>
   <v>       0.00555561       0.00133330       0.01940230 </v>
   <v>       0.00206129      -0.00211710       0.05722761 </v>
   <v>      -0.00059919       0.00394250      -0.00374506 </v>
   <v>       0.00541180       0.00282883      -0.04089697 </v>
   <v>       0.00193880       0.00274302      -0.00129113 </v>
   <v>      -0.00259648      -0.00302865       0.01449777 </v>
   <v>      -0.00259659      -0.00302863      -0.01449779 </v>
   <v>       0.00193898       0.00274296       0.00129108 </v>
   <v>       0.00541163       0.00282879       0.04089673 </v>
   <v>      -0.00059905       0.00394246       0.00374509 </v>
   <v>       0.00206086      -0.00211726      -0.05722734 </v>
   <v>       0.00555577       0.00133332      -0.01940231 </v>
   <v>      -0.00555575      -0.00133338       0.01940235 </v>
   <v>      -0.00206078       0.00211725       0.05722765 </v>
   <v>       0.00059892      -0.00394248      -0.00374502 </v>
   <v>      -0.00541157      -0.00282882      -0.04089689 </v>
   <v>      -0.00193895      -0.00274298      -0.00129106 </v>
   <v>       0.00259660       0.00302862       0.01449777 </v>
   <v>       0.00259642       0.00302865      -0.01449778 </v>
   <v>      -0.00193885      -0.00274297       0.00129119 </v>
   <v>      -0.00541186      -0.00282885       0.04089688 </v>
   <v>       0.00059919      -0.00394244       0.00374502 </v>
   <v>      -0.00206142       0.00211709      -0.05722755 </v>
   <v>      -0.00555559      -0.00133330      -0.01940237 </v>
  </varray>
  <varray name="stress" >
   <v>      -0.70680937       0.03912585       0.00000064 </v>
   <v>       0.03912585      -0.69861269       0.00000005 </v>
   <v>       0.00000064       0.00000005      -2.56048715 </v>
  </varray>
  <energy>
   <i name="e_fr_energy">   -138.43829223 </i>
   <i name="e_wo_entrp">   -138.10784452 </i>
   <i name="e_0_energy">   -138.27306838 </i>
  </energy>
  <time name="totalsc">   25.91   26.21</time>
 </calculation>
 <calculation>
  <scstep>
   <time name="dav">    1.45    1.60</time>
   <time name="total">    1.60    1.75</time>
   <dipole>
    <v name="dipole">      0.00000000       0.00000000      -0.00000147 </v>
    <i name="Tr[quadrupol]">  -4092.70390999 </i>
    <i name="Echarged">      0.00000000 </i>
    <i name="Edipol_quadrupol">      0.00000000 </i>
    <i name="Eion">      0.00000000 </i>
   </dipole>
   <energy>
    <i name="alphaZ">    -38.44870321 </i>
    <i name="ewald">    909.29327225 </i>
    <i name="hartreedc">  -1507.53953564 </i>
    <i name="XCdc">  -3944.93680240 </i>
    <i name="pawpsdc">   4258.83943958 </i>
    <i name="pawaedc">   -208.16717914 </i>
    <i name="eentropy">     -0.33048146 </i>
    <i name="bandstr">   -164.22229015 </i>
    <i name="atom">    557.06934077 </i>
    <i name="e_fr_energy">   -138.44293939 </i>
    <i name="e_wo_entrp">   -138.11245793 </i>
    <i name="e_0_energy">   -138.27769866 </i>
   </energy>
  </scstep>
  <scstep>
   <time name="diag">    0.21    0.21</time>
   <time name="diis">    0.55    0.55</time>
   <time name="orth">    0.04    0.04</time>
   <time name="total">    0.97    0.97</time>
   <dipole>
    <v name="dipole">      0.00000000       0.00000000      -0.00000085 </v>
    <i name="Tr[quadrupol]">  -4092.70505264 </i>
    <i name="Echarged">      0.00000000 </i>
    <i name="Edipol_quadrupol">      0.00000000 </i>
    <i name="Eion">      0.00000000 </i>
   </dipole>
   <energy>
    <i name="e_fr_energy">   -138.44293593 </i>
    <i name="e_wo_entrp">   -138.11249134 </i>
    <i name="e_0_energy">   -138.27771364 </i>
   </energy>
  </scstep>
  <scstep>
   <time name="diag">    0.21    0.21</time>
   <time name="diis">    0.52    0.52</time>
   <time name="orth">    0.03    0.03</time>
   <time name="total">    0.91    0.91</time>
   <dipole>
    <v name="dipole">      0.00000000       0.00000000       0.00000004 </v>
    <i name="Tr[quadrupol]">  -4092.70481115 </i>
    <i name="Echarged">      0.00000000 </i>
    <i name="Edipol_quadrupol">      0.00000000 </i>
    <i name="Eion">      0.00000000 </i>
   </dipole>
   <energy>
    <i name="e_fr_energy">   -138.44293456 </i>
    <i name="e_wo_entrp">   -138.11252194 </i>
    <i name="e_0_energy">   -138.27772825 </i>
   </energy>
  </scstep>
  <scstep>
   <time name="diag">    0.20    0.20</time>
   <time name="diis">    0.57    0.57</time>
   <time name="orth">    0.04    0.04</time>
   <time name="total">    1.17    1.17</time>
   <dipole>
    <v name="dipole">      0.00000000       0.00000000       0.00000033 </v>
    <i name="Tr[quadrupol]">  -4092.70446293 </i>
    <i name="Echarged">      0.00000000 </i>
    <i name="Edipol_quadrupol">      0.00000000 </i>
    <i name="Eion">      0.00000000 </i>
   </dipole>
   <energy>
    <i name="e_fr_energy">   -138.44293556 </i>
    <i name="e_wo_entrp">   -138.11252379 </i>
    <i name="e_0_energy">   -138.27772968 </i>
   </energy>
  </scstep>
  <scstep>
   <time name="diag">    0.23    0.23</time>
   <time name="diis">    0.59    0.60</time>
   <time name="orth">    0.04    0.04</time>
   <time name="total">    1.07    1.08</time>
   <dipole>
    <v name="dipole">      0.00000000       0.00000000       0.00000037 </v>
    <i name="Tr[quadrupol]">  -4092.70365661 </i>
    <i name="Echarged">      0.00000000 </i>
    <i name="Edipol_quadrupol">      0.00000000 </i>
    <i name="Eion">      0.00000000 </i>
   </dipole>
   <energy>
    <i name="e_fr_energy">   -138.44293574 </i>
    <i name="e_wo_entrp">   -138.11251898 </i>
    <i name="e_0_energy">   -138.27772736 </i>
   </energy>
  </scstep>
  <scstep>
   <time name="diag">    0.22    0.22</time>
   <time name="diis">    0.52    0.52</time>
   <time name="orth">    0.04    0.04</time>
   <time name="total">    0.94    0.94</time>
   <dipole>
    <v name="dipole">      0.00000000       0.00000000       0.00000032 </v>
    <i name="Tr[quadrupol]">  -4092.70217533 </i>
    <i name="Echarged">      0.00000000 </i>
    <i name="Edipol_quadrupol">      0.00000000 </i>
    <i name="Eion">      0.00000000 </i>
   </dipole>
   <energy>
    <i name="e_fr_energy">   -138.44293583 </i>
    <i name="e_wo_entrp">   -138.11252200 </i>
    <i name="e_0_energy">   -138.27772891 </i>
   </energy>
  </scstep>
  <scstep>
   <time name="diag">    0.23    0.23</time>
   <time name="diis">    0.52    0.52</time>
   <time name="orth">    0.04    0.04</time>
   <time name="total">    1.02    1.03</time>
   <dipole>
    <v name="dipole">      0.00000000       0.00000000       0.00000019 </v>
    <i name="Tr[quadrupol]">  -4092.70060262 </i>
    <i name="Echarged">      0.00000000 </i>
    <i name="Edipol_quadrupol">      0.00000000 </i>
    <i name="Eion">      0.00000000 </i>
   </dipole>
   <energy>
    <i name="e_fr_energy">   -138.44293579 </i>
    <i name="e_wo_entrp">   -138.11251932 </i>
    <i name="e_0_energy">   -138.27772755 </i>
   </energy>
  </scstep>
  <scstep>
   <time name="diag">    0.20    0.20</time>
   <time name="diis">    0.44    0.44</time>
   <time name="orth">    0.04    0.04</time>
   <time name="total">    0.80    0.80</time>
   <dipole>
    <v name="dipole">      0.00000000       0.00000000       0.00000018 </v>
    <i name="Tr[quadrupol]">  -4092.70052227 </i>
    <i name="Echarged">      0.00000000 </i>
    <i name="Edipol_quadrupol">      0.00000000 </i>
    <i name="Eion">      0.00000000 </i>
   </dipole>
   <energy>
    <i name="alphaZ">    -38.44870321 </i>
    <i name="ewald">    909.29327225 </i>
    <i name="hartreedc">  -1507.55048039 </i>
    <i name="XCdc">  -3944.93513885 </i>
    <i name="pawpsdc">   4258.88264806 </i>
    <i name="pawaedc">   -208.21065037 </i>
    <i name="eentropy">     -0.33041640 </i>
    <i name="bandstr">   -164.21280765 </i>
    <i name="atom">    557.06934077 </i>
    <i name="e_fr_energy">   -138.44293579 </i>
    <i name="e_wo_entrp">   -138.11251939 </i>
    <i name="e_0_energy">   -138.27772759 </i>
   </energy>
  </scstep>
  <structure>
   <crystal>
    <varray name="basis" >
     <v>      -8.89989772       8.89989772       0.00000000 </v>
     <v>     -17.79979544      -0.00000000       0.00000000 </v>
     <v>       0.00000000       0.00000000      35.07498653 </v>
    </varray>
    <i name="volume">   5556.45165339 </i>
    <varray name="rec_basis" >
     <v>      -0.00000000       0.11236084       0.00000000 </v>
     <v>      -0.05618042      -0.05618042       0.00000000 </v>
     <v>       0.00000000       0.00000000       0.02851035 </v>
    </varray>
   </crystal>
   <varray name="positions" >
    <v>       0.00000000       0.00000003       0.23090219 </v>
    <v>      -0.00000000       0.16666667       0.17112562 </v>
    <v>       0.00000000       0.00000003       0.35049267 </v>
    <v>       0.00000000       0.16666667       0.29061444 </v>
    <v>      -0.00000000       0.00000003       0.47011049 </v>
    <v>       0.00000000       0.16666667       0.41029472 </v>
    <v>      -0.00000000       0.00000003       0.58970528 </v>
    <v>      -0.00000000       0.16666667       0.52988951 </v>
    <v>       0.00000000       0.00000003       0.70938556 </v>
    <v>      -0.00000000       0.16666667       0.64950733 </v>
    <v>      -0.00000000       0.00000003       0.82887438 </v>
    <v>      -0.00000000       0.16666667       0.76909781 </v>
    <v>       0.33334056      -0.00001864       0.23089567 </v>
    <v>       0.33332186       0.16666682       0.17114079 </v>
    <v>       0.33335470      -0.00000903       0.35047762 </v>
    <v>       0.33334867       0.16664433       0.29061961 </v>
    <v>       0.33334820      -0.00001266       0.47009478 </v>
    <v>       0.33331692       0.16668191       0.41030959 </v>
    <v>       0.33331692       0.00001528       0.58969041 </v>
    <v>       0.33334820       0.16665398       0.52990522 </v>
    <v>       0.33334867      -0.00002230       0.70938039 </v>
    <v>       0.33335470       0.16665760       0.64952238 </v>
    <v>       0.33332186       0.00000019       0.82885921 </v>
    <v>       0.33334056       0.16664799       0.76910433 </v>
    <v>      -0.00000000       0.33333337       0.23090219 </v>
    <v>      -0.00000000       0.50000000       0.17112562 </v>
    <v>      -0.00000000       0.33333337       0.35049267 </v>
    <v>      -0.00000000       0.50000000       0.29061444 </v>
    <v>       0.00000000       0.33333337       0.47011049 </v>
    <v>       0.00000000       0.50000000       0.41029472 </v>
    <v>       0.00000000       0.33333337       0.58970528 </v>
    <v>       0.00000000       0.50000000       0.52988951 </v>
    <v>      -0.00000000       0.33333337       0.70938556 </v>
    <v>      -0.00000000       0.50000000       0.64950733 </v>
    <v>       0.00000000       0.33333337       0.82887438 </v>
    <v>      -0.00000000       0.50000000       0.76909781 </v>
    <v>       0.66665944       0.00001870       0.23089567 </v>
    <v>       0.66667814       0.16666651       0.17114079 </v>
    <v>       0.66664530       0.00000909       0.35047762 </v>
    <v>       0.66665133       0.16668900       0.29061961 </v>
    <v>       0.66665180       0.00001272       0.47009478 </v>
    <v>       0.66668308       0.16665142       0.41030959 </v>
    <v>       0.66668308      -0.00001521       0.58969041 </v>
    <v>       0.66665180       0.16667936       0.52990522 </v>
    <v>       0.66665133       0.00002237       0.70938039 </v>
    <v>       0.66664530       0.16667573       0.64952238 </v>
    <v>       0.66667814      -0.00000012       0.82885921 </v>
    <v>       0.66665944       0.16668534       0.76910433 </v>
    <v>       0.33334056       0.33331470       0.23089567 </v>
    <v>       0.33332186       0.50000015       0.17114079 </v>
    <v>       0.33335470       0.33332431       0.35047762 </v>
    <v>       0.33334867       0.49997767       0.29061961 </v>
    <v>       0.33334820       0.33332068       0.47009478 </v>
    <v>       0.33331692       0.50001525       0.41030959 </v>
    <v>       0.33331692       0.33334861       0.58969041 </v>
    <v>       0.33334820       0.49998731       0.52990522 </v>
[...]
       <r>    -3.4040     6.4271     1.3046 </r>
       <r>    -3.3801     6.3874     1.4573 </r>
       <r>    -3.3562     6.0488     1.6019 </r>
       <r>    -3.3323     5.3254     1.7292 </r>
       <r>    -3.3084     4.3226     1.8325 </r>
       <r>    -3.2845     3.3013     1.9114 </r>
       <r>    -3.2606     2.5809     1.9731 </r>
       <r>    -3.2367     2.4561     2.0318 </r>
       <r>    -3.2128     3.1657     2.1075 </r>
       <r>    -3.1889     4.8886     2.2243 </r>
       <r>    -3.1650     7.7196     2.4088 </r>
       <r>    -3.1411    11.5951     2.6860 </r>
       <r>    -3.1172    16.1926     3.0730 </r>
       <r>    -3.0933    20.8848     3.5722 </r>
       <r>    -3.0694    24.8472     4.1661 </r>
       <r>    -3.0455    27.3570     4.8200 </r>
       <r>    -3.0216    28.1621     5.4932 </r>
       <r>    -2.9977    27.6697     6.1546 </r>
       <r>    -2.9738    26.7451     6.7939 </r>
       <r>    -2.9499    26.1779     7.4196 </r>
       <r>    -2.9260    26.1662     8.0450 </r>
       <r>    -2.9021    26.2104     8.6715 </r>
       <r>    -2.8782    25.5150     9.2814 </r>
       <r>    -2.8543    23.5994     9.8455 </r>
       <r>    -2.8304    20.6715    10.3396 </r>
       <r>    -2.8065    17.5344    10.7587 </r>
       <r>    -2.7826    15.1737    11.1214 </r>
       <r>    -2.7587    14.3583    11.4646 </r>
       <r>    -2.7348    15.4672    11.8343 </r>
       <r>    -2.7109    18.5023    12.2766 </r>
       <r>    -2.6870    23.1256    12.8293 </r>
       <r>    -2.6631    28.6553    13.5143 </r>
       <r>    -2.6392    34.1013    14.3294 </r>
       <r>    -2.6152    38.3475    15.2460 </r>
       <r>    -2.5913    40.4789    16.2135 </r>
       <r>    -2.5674    40.1252    17.1726 </r>
       <r>    -2.5435    37.6543    18.0727 </r>
       <r>    -2.5196    34.0858    18.8874 </r>
       <r>    -2.4957    30.7045    19.6213 </r>
       <r>    -2.4718    28.5086    20.3028 </r>
       <r>    -2.4479    27.7895    20.9670 </r>
       <r>    -2.4240    28.1252    21.6393 </r>
       <r>    -2.4001    28.8190    22.3281 </r>
       <r>    -2.3762    29.4625    23.0324 </r>
       <r>    -2.3523    30.1803    23.7538 </r>
       <r>    -2.3284    31.3726    24.5037 </r>
       <r>    -2.3045    33.2134    25.2975 </r>
       <r>    -2.2806    35.3683    26.1429 </r>
       <r>    -2.2567    37.1654    27.0313 </r>
       <r>    -2.2328    38.0140    27.9399 </r>
       <r>    -2.2089    37.6633    28.8402 </r>
       <r>    -2.1850    36.1171    29.7035 </r>
       <r>    -2.1611    33.4030    30.5019 </r>
       <r>    -2.1372    29.5074    31.2072 </r>
       <r>    -2.1133    24.5452    31.7939 </r>
       <r>    -2.0894    18.9444    32.2467 </r>
       <r>    -2.0655    13.4068    32.5672 </r>
       <r>    -2.0416     8.6546    32.7741 </r>
       <r>    -2.0177     5.1748    32.8977 </r>
       <r>    -1.9938     3.1619    32.9733 </r>
       <r>    -1.9699     2.6712    33.0372 </r>
       <r>    -1.9460     3.8399    33.1290 </r>
       <r>    -1.9221     6.9859    33.2959 </r>
       <r>    -1.8982    12.4618    33.5938 </r>
       <r>    -1.8743    20.2773    34.0785 </r>
       <r>    -1.8504    29.6808    34.7879 </r>
       <r>    -1.8265    39.0257    35.7208 </r>
       <r>    -1.8026    46.1740    36.8244 </r>
       <r>    -1.7787    49.3638    38.0044 </r>
       <r>    -1.7548    48.0824    39.1537 </r>
       <r>    -1.7309    43.3757    40.1905 </r>
       <r>    -1.7069    37.3480    41.0832 </r>
       <r>    -1.6830    32.1322    41.8512 </r>
       <r>    -1.6591    28.9433    42.5430 </r>
       <r>    -1.6352    27.7397    43.2061 </r>
       <r>    -1.6113    27.6128    43.8661 </r>
       <r>    -1.5874    27.5760    44.5253 </r>
       <r>    -1.5635    27.2128    45.1757 </r>
       <r>    -1.5396    26.7800    45.8158 </r>
       <r>    -1.5157    26.7898    46.4562 </r>
       <r>    -1.4918    27.4791    47.1130 </r>
       <r>    -1.4679    28.6311    47.7974 </r>
       <r>    -1.4440    29.8695    48.5113 </r>
       <r>    -1.4201    31.1141    49.2550 </r>
       <r>    -1.3962    32.7581    50.0380 </r>
       <r>    -1.3723    35.4110    50.8845 </r>
       <r>    -1.3484    39.4477    51.8274 </r>
       <r>    -1.3245    44.7517    52.8971 </r>
       <r>    -1.3006    50.8180    54.1117 </r>
       <r>    -1.2767    57.0644    55.4757 </r>
       <r>    -1.2528    63.0698    56.9833 </r>
       <r>    -1.2289    68.5694    58.6223 </r>
       <r>    -1.2050    73.2526    60.3732 </r>
       <r>    -1.1811    76.5676    62.2034 </r>
       <r>    -1.1572    77.7751    64.0624 </r>
       <r>    -1.1333    76.3490    65.8874 </r>
       <r>    -1.1094    72.5089    67.6205 </r>
       <r>    -1.0855    67.4143    69.2319 </r>
       <r>    -1.0616    62.6851    70.7302 </r>
       <r>    -1.0377    59.4497    72.1512 </r>
       <r>    -1.0138    57.6393    73.5290 </r>
       <r>    -0.9899    56.1622    74.8714 </r>
       <r>    -0.9660    53.8960    76.1597 </r>
       <r>    -0.9421    50.7287    77.3722 </r>
       <r>    -0.9182    47.8293    78.5155 </r>
       <r>    -0.8943    46.9723    79.6382 </r>
       <r>    -0.8704    49.4596    80.8204 </r>
       <r>    -0.8465    55.3754    82.1441 </r>
       <r>    -0.8225    63.5196    83.6624 </r>
       <r>    -0.7986    71.8768    85.3804 </r>
       <r>    -0.7747    78.2852    87.2516 </r>
       <r>    -0.7508    81.0621    89.1892 </r>
       <r>    -0.7269    79.4458    91.0882 </r>
       <r>    -0.7030    73.7259    92.8504 </r>
       <r>    -0.6791    64.9929    94.4040 </r>
       <r>    -0.6552    54.6434    95.7101 </r>
       <r>    -0.6313    43.9485    96.7606 </r>
       <r>    -0.6074    33.9219    97.5714 </r>
       <r>    -0.5835    25.4531    98.1798 </r>
       <r>    -0.5596    19.4757    98.6453 </r>
       <r>    -0.5357    16.9793    99.0512 </r>
       <r>    -0.5118    18.8183    99.5010 </r>
       <r>    -0.4879    25.3570   100.1071 </r>
       <r>    -0.4640    36.0283   100.9682 </r>
       <r>    -0.4401    48.9971   102.1394 </r>
       <r>    -0.4162    61.2574   103.6036 </r>
       <r>    -0.3923    69.4198   105.2629 </r>
       <r>    -0.3684    71.0239   106.9606 </r>
       <r>    -0.3445    65.7042   108.5311 </r>
       <r>    -0.3206    55.4460   109.8564 </r>
       <r>    -0.2967    43.6813   110.9005 </r>
       <r>    -0.2728    33.7307   111.7068 </r>
       <r>    -0.2489    27.4693   112.3634 </r>
       <r>    -0.2250    24.8638   112.9577 </r>
       <r>    -0.2011    24.4575   113.5423 </r>
       <r>    -0.1772    24.4090   114.1257 </r>
       <r>    -0.1533    23.5202   114.6879 </r>
       <r>    -0.1294    21.8006   115.2090 </r>
       <r>    -0.1055    20.3903   115.6964 </r>
       <r>    -0.0816    20.9698   116.1976 </r>
       <r>    -0.0577    24.9687   116.7944 </r>
       <r>    -0.0338    32.8931   117.5807 </r>
       <r>    -0.0099    43.9859   118.6320 </r>
       <r>     0.0140    56.3255   119.9784 </r>
       <r>     0.0379    67.3606   121.5885 </r>
       <r>     0.0619    74.7361   123.3749 </r>
       <r>     0.0858    77.1006   125.2178 </r>
       <r>     0.1097    74.5406   126.9995 </r>
       <r>     0.1336    68.4366   128.6353 </r>
       <r>     0.1575    60.8179   130.0890 </r>
       <r>     0.1814    53.5336   131.3686 </r>
       <r>     0.2053    47.6264   132.5070 </r>
       <r>     0.2292    43.1895   133.5394 </r>
       <r>     0.2531    39.7435   134.4894 </r>
       <r>     0.2770    36.8805   135.3709 </r>
       <r>     0.3009    34.7383   136.2012 </r>
       <r>     0.3248    33.9752   137.0133 </r>
       <r>     0.3487    35.2799   137.8566 </r>
       <r>     0.3726    38.8085   138.7842 </r>
       <r>     0.3965    43.9875   139.8357 </r>
       <r>     0.4204    49.8269   141.0267 </r>
       <r>     0.4443    55.5066   142.3534 </r>
       <r>     0.4682    60.8249   143.8073 </r>
       <r>     0.4921    66.2113   145.3899 </r>
       <r>     0.5160    72.2969   147.1180 </r>
       <r>     0.5399    79.3158   149.0139 </r>
       <r>     0.5638    86.7188   151.0867 </r>
       <r>     0.5877    93.2389   153.3153 </r>
       <r>     0.6116    97.3543   155.6424 </r>
       <r>     0.6355    97.8605   157.9815 </r>
       <r>     0.6594    94.2576   160.2345 </r>
       <r>     0.6833    86.8497   162.3105 </r>
       <r>     0.7072    76.6445   164.1425 </r>
       <r>     0.7311    65.1871   165.7006 </r>
       <r>     0.7550    54.3703   167.0002 </r>
       <r>     0.7789    46.1556   168.1035 </r>
       <r>     0.8028    42.1314   169.1105 </r>
       <r>     0.8267    42.9715   170.1376 </r>
       <r>     0.8506    48.0362   171.2858 </r>
       <r>     0.8745    55.4075   172.6102 </r>
       <r>     0.8984    62.4756   174.1036 </r>
       <r>     0.9223    66.8865   175.7023 </r>
       <r>     0.9463    67.4163   177.3138 </r>
       <r>     0.9702    64.3437   178.8517 </r>
       <r>     0.9941    59.1410   180.2654 </r>
       <r>     1.0180    53.6776   181.5484 </r>
       <r>     1.0419    49.4032   182.7293 </r>
       <r>     1.0658    46.9829   183.8523 </r>
       <r>     1.0897    46.5448   184.9648 </r>
       <r>     1.1136    48.2614   186.1184 </r>
       <r>     1.1375    52.7164   187.3785 </r>
       <r>     1.1614    60.6640   188.8285 </r>
       <r>     1.1853    72.2813   190.5562 </r>
       <r>     1.2092    86.4921   192.6236 </r>
       <r>     1.2331   100.9762   195.0372 </r>
       <r>     1.2570   112.9825   197.7378 </r>
       <r>     1.2809   120.4301   200.6164 </r>
       <r>     1.3048   122.5646   203.5460 </r>
       <r>     1.3287   119.8497   206.4108 </r>
       <r>     1.3526   113.3797   209.1209 </r>
       <r>     1.3765   104.3260   211.6145 </r>
       <r>     1.4004    93.6627   213.8533 </r>
       <r>     1.4243    82.0941   215.8156 </r>
       <r>     1.4482    70.0700   217.4904 </r>
       <r>     1.4721    57.9092   218.8746 </r>
       <r>     1.4960    46.0340   219.9750 </r>
       <r>     1.5199    35.1444   220.8150 </r>
       <r>     1.5438    26.1160   221.4393 </r>
       <r>     1.5677    19.6219   221.9083 </r>
       <r>     1.5916    15.7422   222.2846 </r>
       <r>     1.6155    13.8608   222.6159 </r>
       <r>     1.6394    12.9391   222.9251 </r>
       <r>     1.6633    11.9893   223.2117 </r>
       <r>     1.6872    10.4620   223.4618 </r>
       <r>     1.7111     8.3498   223.6614 </r>
       <r>     1.7350     6.0122   223.8051 </r>
       <r>     1.7589     3.8825   223.8979 </r>
       <r>     1.7828     2.2428   223.9515 </r>
       <r>     1.8067     1.1578   223.9792 </r>
       <r>     1.8306     0.5339   223.9919 </r>
       <r>     1.8546     0.2199   223.9972 </r>
       <r>     1.8785     0.0809   223.9991 </r>
       <r>     1.9024     0.0266   223.9998 </r>
       <r>     1.9263     0.0078   223.9999 </r>
       <r>     1.9502     0.0020   224.0000 </r>
       <r>     1.9741     0.0005   224.0000 </r>
       <r>     1.9980     0.0001   224.0000 </r>
       <r>     2.0219     0.0000   224.0000 </r>
       <r>     2.0458     0.0000   224.0000 </r>
       <r>     2.0697     0.0000   224.0000 </r>
       <r>     2.0936     0.0000   224.0000 </r>
       <r>     2.1175     0.0000   224.0000 </r>
       <r>     2.1414     0.0000   224.0000 </r>
       <r>     2.1653     0.0000   224.0000 </r>
       <r>     2.1892     0.0000   224.0000 </r>
       <r>     2.2131     0.0000   224.0000 </r>
       <r>     2.2370     0.0000   224.0000 </r>
       <r>     2.2609     0.0000   224.0000 </r>
       <r>     2.2848     0.0000   224.0000 </r>
       <r>     2.3087     0.0000   224.0000 </r>
       <r>     2.3326     0.0000   224.0000 </r>
       <r>     2.3565     0.0000   224.0000 </r>
       <r>     2.3804     0.0000   224.0000 </r>
       <r>     2.4043     0.0000   224.0000 </r>
       <r>     2.4282     0.0000   224.0000 </r>
       <r>     2.4521     0.0000   224.0000 </r>
       <r>     2.4760     0.0000   224.0000 </r>
       <r>     2.4999     0.0000   224.0000 </r>
       <r>     2.5238     0.0000   224.0000 </r>
       <r>     2.5477     0.0000   224.0000 </r>
       <r>     2.5716     0.0000   224.0000 </r>
       <r>     2.5955     0.0000   224.0000 </r>
       <r>     2.6194     0.0000   224.0000 </r>
       <r>     2.6433     0.0000   224.0000 </r>
      </set>
     </set>
    </array>
   </total>
  </dos>
 </calculation>
 <structure name="finalpos" >
  <crystal>
   <varray name="basis" >
    <v>      -8.89989772       8.89989772       0.00000000 </v>
    <v>     -17.79979544      -0.00000000       0.00000000 </v>
    <v>       0.00000000       0.00000000      35.07498653 </v>
   </varray>
   <i name="volume">   5556.45165339 </i>
   <varray name="rec_basis" >
    <v>      -0.00000000       0.11236084       0.00000000 </v>
    <v>      -0.05618042      -0.05618042       0.00000000 </v>
    <v>       0.00000000       0.00000000       0.02851035 </v>
   </varray>
  </crystal>
  <varray name="positions" >
   <v>      -0.00000062      -0.00002845       0.23527500 </v>
   <v>       0.00040465       0.16615483       0.17807669 </v>
   <v>      -0.00002985       0.00005797       0.35179817 </v>
   <v>       0.00012004       0.16655680       0.29125823 </v>
   <v>      -0.00001081       0.00001563       0.47042517 </v>
   <v>      -0.00005172       0.16673952       0.41217834 </v>
   <v>      -0.00005149      -0.00005160       0.58781573 </v>
   <v>       0.00005310       0.16663335       0.52958173 </v>
   <v>       0.00013872      -0.00011465       0.70876424 </v>
   <v>      -0.00000555       0.16659041       0.64822093 </v>
   <v>      -0.00021984       0.00047338       0.82190775 </v>
   <v>       0.00000396       0.16670128       0.76477470 </v>
   <v>       0.33292584      -0.00098083       0.23545422 </v>
   <v>       0.33398058       0.16583411       0.17818924 </v>
   <v>       0.33141314      -0.00018202       0.35222395 </v>
   <v>       0.33487541       0.16456126       0.29199874 </v>
   <v>       0.33355492      -0.00162629       0.47001152 </v>
   <v>       0.33380992       0.16561502       0.41139882 </v>
   <v>       0.33388036      -0.00104987       0.58861809 </v>
   <v>       0.33345834       0.16506830       0.52993702 </v>
   <v>       0.33481728      -0.00204358       0.70799375 </v>
   <v>       0.33132757       0.16661357       0.64779233 </v>
   <v>       0.33433276      -0.00108706       0.82182372 </v>
   <v>       0.33287084       0.16565660       0.76456707 </v>
   <v>      -0.00000833       0.33323432       0.23518169 </v>
   <v>       0.00007224       0.49977555       0.17817457 </v>
   <v>       0.00001764       0.33330583       0.35178385 </v>
   <v>      -0.00006691       0.50004117       0.29121904 </v>
   <v>       0.00008013       0.33328743       0.47041097 </v>
   <v>      -0.00010617       0.50013285       0.41213787 </v>
   <v>      -0.00008720       0.33335457       0.58787466 </v>
   <v>       0.00010470       0.49998687       0.52956617 </v>
   <v>      -0.00001619       0.33334336       0.70876718 </v>
   <v>       0.00012683       0.49992575       0.64819275 </v>
   <v>      -0.00001060       0.33344231       0.82192857 </v>
   <v>      -0.00003601       0.50006362       0.76475404 </v>
   <v>       0.66707526       0.00097465       0.23548314 </v>
   <v>       0.66577444       0.16760517       0.17817684 </v>
   <v>       0.66874752       0.00005666       0.35222170 </v>
   <v>       0.66500380       0.16879719       0.29200894 </v>
   <v>       0.66638174       0.00155200       0.47008044 </v>
   <v>       0.66621118       0.16769254       0.41140760 </v>
   <v>       0.66623894       0.00098293       0.58858385 </v>
   <v>       0.66642369       0.16822284       0.52993805 </v>
   <v>       0.66518282       0.00216492       0.70801130 </v>
   <v>       0.66858132       0.16680094       0.64778975 </v>
   <v>       0.66580095       0.00101203       0.82178313 </v>
   <v>       0.66701429       0.16778750       0.76454170 </v>
   <v>       0.33285810       0.33238076       0.23544190 </v>
   <v>       0.33424380       0.49896869       0.17818458 </v>
   <v>       0.33139398       0.33314436       0.35221052 </v>
   <v>       0.33468170       0.49799190       0.29195514 </v>
   <v>       0.33347085       0.33174539       0.47001740 </v>
   <v>       0.33378423       0.49894519       0.41140429 </v>
   <v>       0.33370981       0.33231363       0.58861039 </v>
   <v>       0.33344735       0.49840166       0.52994618 </v>
   <v>       0.33490179       0.33126191       0.70799302 </v>
   <v>       0.33135385       0.49988661       0.64776782 </v>
   <v>       0.33400033       0.33246135       0.82182960 </v>
   <v>       0.33284098       0.49913837       0.76456726 </v>
   <v>      -0.00013425       0.66679751       0.23525941 </v>
   <v>       0.00014171       0.83312391       0.17815930 </v>
   <v>      -0.00009134       0.66672662       0.35179277 </v>
   <v>       0.00017604       0.83321362       0.29123065 </v>
   <v>       0.00005092       0.66667018       0.47041872 </v>
   <v>       0.00008972       0.83334424       0.41215625 </v>
   <v>      -0.00008844       0.66677934       0.58785302 </v>
   <v>       0.00008078       0.83326579       0.52958381 </v>
   <v>       0.00023106       0.66653098       0.70875175 </v>
   <v>       0.00005790       0.83326556       0.64818326 </v>
   <v>      -0.00019943       0.66711167       0.82191221 </v>
   <v>      -0.00012653       0.83348301       0.76472911 </v>
   <v>       0.66733363       0.33417707       0.23542510 </v>
   <v>       0.66597417       0.50083944       0.17815757 </v>
   <v>       0.66863841       0.33344103       0.35218671 </v>
   <v>       0.66505355       0.50211750       0.29200005 </v>
   <v>       0.66640858       0.33491469       0.47006416 </v>
   <v>       0.66608737       0.50115354       0.41138872 </v>
   <v>       0.66625430       0.33438145       0.58860730 </v>
   <v>       0.66645002       0.50155307       0.52993309 </v>
   <v>       0.66524501       0.33543063       0.70797658 </v>
   <v>       0.66859140       0.50021160       0.64780606 </v>
   <v>       0.66586470       0.33426285       0.82186598 </v>
   <v>       0.66718353       0.50098546       0.76456966 </v>
   <v>       0.33291943       0.66568055       0.23542977 </v>
   <v>       0.33429174       0.83227595       0.17816363 </v>
   <v>       0.33142775       0.66644335       0.35223717 </v>
   <v>       0.33465978       0.83131882       0.29198482 </v>
   <v>       0.33347445       0.66506417       0.47004227 </v>
   <v>       0.33377907       0.83230959       0.41142299 </v>
   <v>       0.33387892       0.66564758       0.58865019 </v>
   <v>       0.33343578       0.83174250       0.52993687 </v>
   <v>       0.33483714       0.66459410       0.70797557 </v>
   <v>       0.33150270       0.83316014       0.64775878 </v>
   <v>       0.33402509       0.66578296       0.82183577 </v>
   <v>       0.33295831       0.83232247       0.76453332 </v>
   <v>       0.66704782       0.66762442       0.23545817 </v>
   <v>       0.66576118       0.83423011       0.17819222 </v>
   <v>       0.66854458       0.66688205       0.35219092 </v>
   <v>       0.66511017       0.83542670       0.29201121 </v>
   <v>       0.66640334       0.66823709       0.47008956 </v>
   <v>       0.66628341       0.83431226       0.41135871 </v>
   <v>       0.66628710       0.66773491       0.58860927 </v>
   <v>       0.66646178       0.83487304       0.52993790 </v>
   <v>       0.66521463       0.66878414       0.70798344 </v>
   <v>       0.66865476       0.83350577       0.64780588 </v>
   <v>       0.66584376       0.66768350       0.82181980 </v>
   <v>       0.66713408       0.83429439       0.76452941 </v>
  </varray>
 </structure>
</modeling>
