 running on  128 total cores
 distrk:  each k-point on  128 cores,    1 groups
 distr:  one band on   16 cores,    8 groups
 vasp.6.2.1 16May21 (build Dec 23 2021 00:35:04) complex                        
  
 POSCAR found type information on POSCAR Na
 POSCAR found :  1 types and     108 ions
 scaLAPACK will be used
 LDA part: xc-table for Pade appr. of Perdew
 -----------------------------------------------------------------------------
|                                                                             |
|           W    W    AA    RRRRR   N    N  II  N    N   GGGG   !!!           |
|           W    W   A  A   R    R  NN   N  II  NN   N  G    G  !!!           |
|           W    W  A    A  R    R  N N  N  II  N N  N  G       !!!           |
|           W WW W  AAAAAA  RRRRR   N  N N  II  N  N N  G  GGG   !            |
|           WW  WW  A    A  R   R   N   NN  II  N   NN  G    G                |
|           W    W  A    A  R    R  N    N  II  N    N   GGGG   !!!           |
|                                                                             |
|     The requested file  could not be found or opened for reading            |
|     k-point information. Automatic k-point generation is used as a          |
|     fallback, which may lead to unwanted results.                           |
|                                                                             |
 -----------------------------------------------------------------------------

 POSCAR, INCAR and KPOINTS ok, starting setup
 FFT: planning ...
 WAVECAR not read
 entering main loop
       N       E                     dE             d eps       ncg     rms          rms(c)
DAV:   1     0.276955756478E+01    0.27696E+01   -0.17784E+04   448   0.460E+02
DAV:   2    -0.132268434801E+03   -0.13504E+03   -0.12463E+03   512   0.592E+01
DAV:   3    -0.141681000342E+03   -0.94126E+01   -0.88738E+01   584   0.142E+01
DAV:   4    -0.142190564915E+03   -0.50956E+00   -0.50718E+00   688   0.366E+00
DAV:   5    -0.142226436101E+03   -0.35871E-01   -0.35864E-01   712   0.931E-01    0.330E+00
RMM:   6    -0.140320598561E+03    0.19058E+01   -0.52949E-01   448   0.495E-01    0.215E+00
RMM:   7    -0.138917396940E+03    0.14032E+01   -0.24416E+00   461   0.102E+00    0.833E-01
RMM:   8    -0.138705863507E+03    0.21153E+00   -0.27033E-01   449   0.715E-01    0.521E-01
RMM:   9    -0.138557749649E+03    0.14811E+00   -0.16473E-01   448   0.424E-01    0.502E-01
RMM:  10    -0.138440318957E+03    0.11743E+00   -0.99937E-02   448   0.385E-01    0.261E-01
RMM:  11    -0.138323215186E+03    0.11710E+00   -0.12525E-01   450   0.337E-01    0.256E-01
RMM:  12    -0.138372619692E+03   -0.49405E-01   -0.77426E-02   458   0.246E-01    0.198E-01
RMM:  13    -0.138419955399E+03   -0.47336E-01   -0.30534E-02   448   0.194E-01    0.967E-02
RMM:  14    -0.138427306901E+03   -0.73515E-02   -0.13532E-02   448   0.129E-01    0.477E-02
RMM:  15    -0.138437964537E+03   -0.10658E-01   -0.45122E-03   448   0.864E-02    0.354E-02
RMM:  16    -0.138438225368E+03   -0.26083E-03   -0.92902E-04   476   0.497E-02    0.813E-03
RMM:  17    -0.138438293225E+03   -0.67858E-04   -0.28524E-04   534   0.297E-02    0.451E-03
RMM:  18    -0.138438290389E+03    0.28360E-05   -0.61670E-05   515   0.140E-02    0.223E-03
RMM:  19    -0.138438291871E+03   -0.14818E-05   -0.19108E-05   527   0.665E-03    0.748E-04
RMM:  20    -0.138438292218E+03   -0.34696E-06   -0.35493E-06   560   0.326E-03    0.356E-04
RMM:  21    -0.138438292229E+03   -0.11069E-07   -0.42629E-07   545   0.114E-03    0.211E-04
RMM:  22    -0.138438292231E+03   -0.22637E-08   -0.94312E-08   483   0.547E-04
   1 F= -.13843829E+03 E0= -.13827307E+03  d E =-.138438E+03
 curvature:   0.00 expect dE= 0.000E+00 dE for cont linesearch  0.000E+00
 trial: gam= 0.00000 g(F)=  0.470E-02 g(S)=  0.000E+00 ort = 0.000E+00 (trialstep = 0.100E+01)
 search vector abs. value=  0.470E-02
 bond charge predicted
       N       E                     dE             d eps       ncg     rms          rms(c)
DAV:   1    -0.138442939392E+03   -0.46472E-02   -0.37228E-03   520   0.130E-01    0.899E-03
RMM:   2    -0.138442935929E+03    0.34631E-05   -0.96664E-05   448   0.193E-02    0.470E-03
RMM:   3    -0.138442934555E+03    0.13735E-05   -0.27542E-05   457   0.813E-03    0.113E-03
RMM:   4    -0.138442935564E+03   -0.10085E-05   -0.82088E-06   513   0.495E-03    0.803E-04
RMM:   5    -0.138442935739E+03   -0.17569E-06   -0.15829E-06   546   0.224E-03    0.585E-04
RMM:   6    -0.138442935826E+03   -0.86914E-07   -0.25283E-07   496   0.823E-04    0.312E-04
RMM:   7    -0.138442935786E+03    0.40468E-07   -0.93383E-08   471   0.520E-04    0.131E-04
RMM:   8    -0.138442935790E+03   -0.43833E-08   -0.29652E-08   386   0.325E-04
   2 F= -.13844294E+03 E0= -.13827773E+03  d E =-.464356E-02
 ZBRENT: can't locate minimum, use default step
 trial-energy change:   -0.004644  1 .order   -0.004634   -0.004696   -0.004571
 step:   4.0000(harm= 37.6426)  dis= 0.01104  next Energy=  -138.526676 (dE=-0.884E-01)
 bond charge predicted
       N       E                     dE             d eps       ncg     rms          rms(c)
DAV:   1    -0.138455975220E+03   -0.13039E-01   -0.33477E-02   496   0.392E-01    0.269E-02
RMM:   2    -0.138455938590E+03    0.36630E-04   -0.84848E-04   448   0.578E-02    0.141E-02
RMM:   3    -0.138455921154E+03    0.17437E-04   -0.24195E-04   454   0.244E-02    0.333E-03
RMM:   4    -0.138455929424E+03   -0.82702E-05   -0.75430E-05   513   0.151E-02    0.244E-03
RMM:   5    -0.138455930986E+03   -0.15622E-05   -0.14462E-05   546   0.685E-03    0.184E-03
RMM:   6    -0.138455931690E+03   -0.70363E-06   -0.23922E-06   477   0.252E-03    0.116E-03
RMM:   7    -0.138455931334E+03    0.35553E-06   -0.11970E-06   470   0.179E-03    0.493E-04
RMM:   8    -0.138455931374E+03   -0.39743E-07   -0.41850E-07   562   0.110E-03    0.425E-04
RMM:   9    -0.138455931374E+03    0.36005E-09   -0.59655E-08   443   0.397E-04
   3 F= -.13845593E+03 E0= -.13829077E+03  d E =-.176391E-01
 curvature:  -2.96 expect dE=-0.117E-01 dE for cont linesearch -0.115E-01
 ZBRENT: increasing intervall
 opt :  10.0000  next Energy=  -138.479864 (dE=-0.416E-01)
 bond charge predicted
       N       E                     dE             d eps       ncg     rms          rms(c)
DAV:   1    -0.138479403815E+03   -0.23472E-01   -0.13400E-01   464   0.784E-01    0.537E-02
RMM:   2    -0.138479265215E+03    0.13860E-03   -0.33768E-03   448   0.116E-01    0.281E-02
RMM:   3    -0.138479193736E+03    0.71479E-04   -0.96513E-04   454   0.487E-02    0.644E-03
RMM:   4    -0.138479225492E+03   -0.31756E-04   -0.29735E-04   513   0.302E-02    0.479E-03
RMM:   5    -0.138479231647E+03   -0.61551E-05   -0.57449E-05   546   0.137E-02    0.358E-03
RMM:   6    -0.138479234054E+03   -0.24067E-05   -0.96258E-06   481   0.501E-03    0.241E-03
RMM:   7    -0.138479232738E+03    0.13161E-05   -0.48025E-06   467   0.353E-03    0.116E-03
RMM:   8    -0.138479232873E+03   -0.13503E-06   -0.16848E-06   556   0.222E-03    0.119E-03
RMM:   9    -0.138479232939E+03   -0.66475E-07   -0.26024E-07   536   0.858E-04    0.102E-03
RMM:  10    -0.138479233341E+03   -0.40154E-06   -0.30383E-07   448   0.691E-04    0.223E-03
RMM:  11    -0.138479233382E+03   -0.41446E-07   -0.13182E-07   441   0.439E-04    0.226E-03
RMM:  12    -0.138479233655E+03   -0.27265E-06   -0.56366E-07   477   0.731E-04    0.134E-03
RMM:  13    -0.138479234425E+03   -0.76978E-06   -0.30209E-07   457   0.593E-04    0.184E-03
RMM:  14    -0.138479234625E+03   -0.19981E-06   -0.55754E-08   414   0.338E-04    0.122E-03
RMM:  15    -0.138479234714E+03   -0.88956E-07   -0.11637E-07   453   0.349E-04    0.416E-04
RMM:  16    -0.138479234752E+03   -0.38725E-07   -0.40517E-08   425   0.231E-04    0.659E-05
RMM:  17    -0.138479234752E+03    0.85697E-09   -0.36578E-09   295   0.106E-04
   4 F= -.13847923E+03 E0= -.13831418E+03  d E =-.409425E-01
 curvature:  -6.14 expect dE=-0.177E-01 dE for cont linesearch -0.163E-01
 ZBRENT: increasing intervall
 opt :  22.0000  next Energy=  -138.512720 (dE=-0.744E-01)
 bond charge predicted
       N       E                     dE             d eps       ncg     rms          rms(c)
DAV:   1    -0.138512562823E+03   -0.33328E-01   -0.53798E-01   448   0.157E+00    0.107E-01
RMM:   2    -0.138512020872E+03    0.54195E-03   -0.13551E-02   448   0.232E-01    0.564E-02
RMM:   3    -0.138511720275E+03    0.30060E-03   -0.39211E-03   453   0.980E-02    0.126E-02
RMM:   4    -0.138511846592E+03   -0.12632E-03   -0.11926E-03   513   0.609E-02    0.966E-03
RMM:   5    -0.138511872504E+03   -0.25912E-04   -0.23205E-04   545   0.276E-02    0.685E-03
RMM:   6    -0.138511881875E+03   -0.93709E-05   -0.40738E-05   486   0.102E-02    0.480E-03
RMM:   7    -0.138511878189E+03    0.36856E-05   -0.18854E-05   470   0.701E-03    0.211E-03
RMM:   8    -0.138511878884E+03   -0.69456E-06   -0.68460E-06   564   0.441E-03    0.175E-03
RMM:   9    -0.138511878764E+03    0.12028E-06   -0.83443E-07   494   0.154E-03    0.176E-03
RMM:  10    -0.138511877791E+03    0.97279E-06   -0.18800E-06   449   0.134E-03    0.486E-03
RMM:  11    -0.138511880162E+03   -0.23716E-05   -0.39685E-06   456   0.158E-03    0.806E-03
RMM:  12    -0.138511884726E+03   -0.45636E-05   -0.16886E-06   452   0.156E-03    0.110E-02
RMM:  13    -0.138511887045E+03   -0.23191E-05   -0.66493E-07   448   0.909E-04    0.101E-02
RMM:  14    -0.138511884427E+03    0.26180E-05   -0.26921E-06   500   0.130E-03    0.624E-03
RMM:  15    -0.138511883418E+03    0.10093E-05   -0.83294E-07   448   0.805E-04    0.460E-03
RMM:  16    -0.138511882749E+03    0.66885E-06   -0.99301E-07   451   0.824E-04    0.276E-03
RMM:  17    -0.138511882613E+03    0.13585E-06   -0.31763E-07   448   0.633E-04    0.170E-03
RMM:  18    -0.138511882565E+03    0.48559E-07   -0.12872E-07   447   0.401E-04    0.107E-03
RMM:  19    -0.138511882554E+03    0.10918E-07   -0.58302E-08   410   0.282E-04    0.813E-04
RMM:  20    -0.138511882550E+03    0.39353E-08   -0.35293E-08   395   0.211E-04
   5 F= -.13851188E+03 E0= -.13834706E+03  d E =-.735903E-01
 curvature: -12.58 expect dE=-0.175E-01 dE for cont linesearch -0.998E-02
 ZBRENT: increasing intervall
 opt :  46.0000  next Energy=  -138.519695 (dE=-0.814E-01)
 bond charge predicted
       N       E                     dE             d eps       ncg     rms          rms(c)
DAV:   1    -0.138524742481E+03   -0.12860E-01   -0.21719E+00   448   0.316E+00    0.209E-01
RMM:   2    -0.138523141959E+03    0.16005E-02   -0.53573E-02   448   0.464E-01    0.112E-01
RMM:   3    -0.138522018513E+03    0.11234E-02   -0.15398E-02   450   0.198E-01    0.242E-02
RMM:   4    -0.138522531173E+03   -0.51266E-03   -0.48931E-03   514   0.124E-01    0.193E-02
RMM:   5    -0.138522637235E+03   -0.10606E-03   -0.96071E-04   542   0.568E-02    0.130E-02
RMM:   6    -0.138522667968E+03   -0.30732E-04   -0.17781E-04   501   0.213E-02    0.988E-03
RMM:   7    -0.138522652634E+03    0.15334E-04   -0.73386E-05   474   0.137E-02    0.479E-03
RMM:   8    -0.138522655735E+03   -0.31006E-05   -0.27175E-05   564   0.865E-03    0.349E-03
RMM:   9    -0.138522651964E+03    0.37707E-05   -0.37677E-06   478   0.313E-03    0.332E-03
RMM:  10    -0.138522646929E+03    0.50348E-05   -0.45542E-06   448   0.257E-03    0.345E-03
RMM:  11    -0.138522655888E+03   -0.89591E-05   -0.18584E-06   460   0.199E-03    0.212E-03
RMM:  12    -0.138522669667E+03   -0.13778E-04   -0.44871E-06   481   0.198E-03    0.789E-04
RMM:  13    -0.138522676950E+03   -0.72837E-05   -0.30351E-06   460   0.203E-03    0.109E-03
RMM:  14    -0.138522677495E+03   -0.54497E-06   -0.26083E-07   460   0.106E-03    0.592E-04
RMM:  15    -0.138522677784E+03   -0.28863E-06   -0.22280E-07   433   0.791E-04    0.148E-04
RMM:  16    -0.138522677804E+03   -0.20272E-07   -0.54215E-08   411   0.432E-04    0.393E-05
RMM:  17    -0.138522677819E+03   -0.14446E-07   -0.20055E-08   352   0.251E-04    0.559E-05
RMM:  18    -0.138522677820E+03   -0.15946E-08   -0.59958E-09   324   0.160E-04
   6 F= -.13852268E+03 E0= -.13835839E+03  d E =-.843856E-01
 curvature:  -9.85 expect dE=-0.224E-01 dE for cont linesearch -0.287E-02
 ZBRENT: bracketing found
 ZBRENT: interpolating
 opt :  36.9431  next Energy=  -138.527976 (dE=-0.897E-01)
 bond charge predicted
       N       E                     dE             d eps       ncg     rms          rms(c)
DAV:   1    -0.138527871504E+03   -0.51937E-02   -0.30892E-01   464   0.119E+00    0.782E-02
RMM:   2    -0.138527665540E+03    0.20596E-03   -0.78758E-03   448   0.177E-01    0.421E-02
RMM:   3    -0.138527502319E+03    0.16322E-03   -0.21923E-03   449   0.756E-02    0.941E-03
RMM:   4    -0.138527579808E+03   -0.77489E-04   -0.76041E-04   518   0.483E-02    0.771E-03
RMM:   5    -0.138527595743E+03   -0.15935E-04   -0.14278E-04   539   0.217E-02    0.545E-03
RMM:   6    -0.138527599834E+03   -0.40907E-05   -0.26848E-05   489   0.821E-03    0.375E-03
RMM:   7    -0.138527599099E+03    0.73445E-06   -0.96926E-06   477   0.537E-03    0.156E-03
RMM:   8    -0.138527599490E+03   -0.39062E-06   -0.41234E-06   550   0.342E-03    0.118E-03
RMM:   9    -0.138527598964E+03    0.52582E-06   -0.53583E-07   491   0.124E-03    0.131E-03
RMM:  10    -0.138527598410E+03    0.55445E-06   -0.55619E-07   448   0.917E-04    0.129E-03
RMM:  11    -0.138527599078E+03   -0.66806E-06   -0.30098E-07   455   0.758E-04    0.829E-04
RMM:  12    -0.138527600134E+03   -0.10566E-05   -0.33161E-07   454   0.644E-04    0.435E-04
RMM:  13    -0.138527600769E+03   -0.63462E-06   -0.34143E-07   463   0.603E-04    0.252E-04
RMM:  14    -0.138527600851E+03   -0.82153E-07   -0.42419E-08   379   0.364E-04    0.168E-04
RMM:  15    -0.138527600890E+03   -0.39252E-07   -0.17372E-08   335   0.242E-04    0.894E-05
RMM:  16    -0.138527600905E+03   -0.14100E-07   -0.55156E-09   309   0.152E-04    0.240E-05
RMM:  17    -0.138527600909E+03   -0.47405E-08   -0.19231E-09   289   0.995E-05
   7 F= -.13852760E+03 E0= -.13836309E+03  d E =-.893087E-01
 curvature: -18.18 expect dE=-0.265E-01 dE for cont linesearch -0.621E-05
 trial: gam= 0.30197 g(F)=  0.146E-02 g(S)=  0.000E+00 ort = 0.401E-04 (trialstep = 0.819E+01)
 search vector abs. value=  0.191E-02
 bond charge predicted
       N       E                     dE             d eps       ncg     rms          rms(c)
DAV:   1    -0.138537446139E+03   -0.98452E-02   -0.94297E-02   464   0.671E-01    0.312E-02
RMM:   2    -0.138537495164E+03   -0.49024E-04   -0.14872E-03   448   0.792E-02    0.175E-02
RMM:   3    -0.138537511771E+03   -0.16607E-04   -0.39286E-04   484   0.353E-02    0.604E-03
RMM:   4    -0.138537528443E+03   -0.16672E-04   -0.12012E-04   534   0.193E-02    0.358E-03
RMM:   5    -0.138537531458E+03   -0.30141E-05   -0.20619E-05   547   0.750E-03    0.218E-03
RMM:   6    -0.138537532018E+03   -0.56032E-06   -0.35314E-06   502   0.320E-03    0.727E-04
RMM:   7    -0.138537531792E+03    0.22538E-06   -0.12930E-06   558   0.178E-03    0.596E-04
RMM:   8    -0.138537531134E+03    0.65851E-06   -0.37821E-07   450   0.767E-04    0.660E-04
RMM:   9    -0.138537531493E+03   -0.35924E-06   -0.11699E-07   457   0.517E-04    0.273E-04
RMM:  10    -0.138537531857E+03   -0.36363E-06   -0.87764E-08   419   0.395E-04    0.225E-04
RMM:  11    -0.138537532677E+03   -0.81998E-06   -0.26210E-07   438   0.518E-04    0.246E-04
RMM:  12    -0.138537532915E+03   -0.23817E-06   -0.10462E-07   406   0.417E-04    0.955E-05
RMM:  13    -0.138537532944E+03   -0.28791E-07   -0.17384E-08   354   0.249E-04    0.368E-05
RMM:  14    -0.138537532965E+03   -0.21167E-07   -0.58959E-09   314   0.146E-04    0.303E-05
RMM:  15    -0.138537532966E+03   -0.13447E-08   -0.18800E-09   271   0.870E-05
   8 F= -.13853753E+03 E0= -.13837385E+03  d E =-.993206E-02
 trial-energy change:   -0.009932  1 .order   -0.009333   -0.012039   -0.006627
 step:  13.0583(harm= 18.2168)  dis= 0.03116  next Energy=  -138.539630 (dE=-0.120E-01)
 bond charge predicted
       N       E                     dE             d eps       ncg     rms          rms(c)
DAV:   1    -0.138540719785E+03   -0.31868E-02   -0.33428E-02   464   0.399E-01    0.186E-02
RMM:   2    -0.138540739061E+03   -0.19276E-04   -0.53055E-04   448   0.472E-02    0.105E-02
RMM:   3    -0.138540746435E+03   -0.73738E-05   -0.13970E-04   484   0.211E-02    0.364E-03
RMM:   4    -0.138540752772E+03   -0.63370E-05   -0.43311E-05   535   0.115E-02    0.214E-03
RMM:   5    -0.138540753805E+03   -0.10327E-05   -0.72893E-06   549   0.445E-03    0.132E-03
RMM:   6    -0.138540754014E+03   -0.20906E-06   -0.11977E-06   500   0.187E-03    0.433E-04
RMM:   7    -0.138540753896E+03    0.11725E-06   -0.44554E-07   546   0.105E-03    0.351E-04
RMM:   8    -0.138540753630E+03    0.26610E-06   -0.13081E-07   436   0.460E-04    0.400E-04
RMM:   9    -0.138540753790E+03   -0.15983E-06   -0.45758E-08   415   0.320E-04    0.166E-04
RMM:  10    -0.138540753928E+03   -0.13796E-06   -0.29299E-08   377   0.239E-04    0.136E-04
RMM:  11    -0.138540754232E+03   -0.30415E-06   -0.88952E-08   401   0.309E-04    0.153E-04
RMM:  12    -0.138540754313E+03   -0.80594E-07   -0.39439E-08   359   0.257E-04    0.608E-05
RMM:  13    -0.138540754325E+03   -0.11799E-07   -0.75346E-09   314   0.157E-04    0.240E-05
RMM:  14    -0.138540754337E+03   -0.12097E-07   -0.22279E-09   271   0.931E-05    0.171E-05
RMM:  15    -0.138540754337E+03   -0.42041E-09   -0.72572E-10   242   0.616E-05
   9 F= -.13854075E+03 E0= -.13837751E+03  d E =-.131534E-01
 curvature:  -8.70 expect dE=-0.516E-02 dE for cont linesearch -0.961E-03
 ZBRENT: increasing intervall
 opt :  22.7975  next Energy=  -138.541816 (dE=-0.142E-01)
 bond charge predicted
       N       E                     dE             d eps       ncg     rms          rms(c)
DAV:   1    -0.138543639352E+03   -0.28850E-02   -0.13426E-01   464   0.801E-01    0.371E-02
RMM:   2    -0.138543712649E+03   -0.73297E-04   -0.21096E-03   448   0.945E-02    0.209E-02
RMM:   3    -0.138543737109E+03   -0.24461E-04   -0.55000E-04   484   0.422E-02    0.731E-03
RMM:   4    -0.138543760638E+03   -0.23529E-04   -0.17034E-04   534   0.230E-02    0.423E-03
RMM:   5    -0.138543764776E+03   -0.41377E-05   -0.29084E-05   548   0.893E-03    0.261E-03
RMM:   6    -0.138543765388E+03   -0.61198E-06   -0.48492E-06   500   0.377E-03    0.872E-04
RMM:   7    -0.138543765048E+03    0.33945E-06   -0.17966E-06   558   0.212E-03    0.711E-04
RMM:   8    -0.138543763966E+03    0.10823E-05   -0.57211E-07   452   0.938E-04    0.838E-04
RMM:   9    -0.138543764537E+03   -0.57100E-06   -0.18479E-07   464   0.641E-04    0.347E-04
RMM:  10    -0.138543765228E+03   -0.69092E-06   -0.14000E-07   432   0.499E-04    0.277E-04
RMM:  11    -0.138543766593E+03   -0.13650E-05   -0.41433E-07   440   0.648E-04    0.298E-04
RMM:  12    -0.138543767024E+03   -0.43168E-06   -0.17653E-07   418   0.542E-04    0.129E-04
RMM:  13    -0.138543767083E+03   -0.58268E-07   -0.32410E-08   363   0.333E-04    0.477E-05
RMM:  14    -0.138543767113E+03   -0.30168E-07   -0.99776E-09   325   0.194E-04    0.321E-05
RMM:  15    -0.138543767114E+03   -0.76056E-09   -0.27432E-09   289   0.105E-04
  10 F= -.13854377E+03 E0= -.13838126E+03  d E =-.161662E-01
 curvature:  -9.62 expect dE=-0.887E-02 dE for cont linesearch -0.748E-04
 trial: gam= 0.51696 g(F)=  0.922E-03 g(S)=  0.000E+00 ort = 0.122E-03 (trialstep = 0.111E+02)
 search vector abs. value=  0.156E-02
 bond charge predicted
       N       E                     dE             d eps       ncg     rms          rms(c)
DAV:   1    -0.138551475834E+03   -0.77087E-02   -0.14255E-01   464   0.846E-01    0.455E-02
RMM:   2    -0.138551421397E+03    0.54437E-04   -0.30097E-03   448   0.116E-01    0.221E-02
RMM:   3    -0.138551439074E+03   -0.17677E-04   -0.67403E-04   496   0.473E-02    0.998E-03
RMM:   4    -0.138551461040E+03   -0.21966E-04   -0.18441E-04   538   0.235E-02    0.516E-03
RMM:   5    -0.138551465091E+03   -0.40513E-05   -0.28530E-05   552   0.874E-03    0.277E-03
RMM:   6    -0.138551465410E+03   -0.31921E-06   -0.46768E-06   513   0.371E-03    0.718E-04
RMM:   7    -0.138551465228E+03    0.18231E-06   -0.14067E-06   560   0.198E-03    0.581E-04
RMM:   8    -0.138551464511E+03    0.71749E-06   -0.27195E-07   456   0.742E-04    0.497E-04
RMM:   9    -0.138551464509E+03    0.15432E-08   -0.11320E-07   453   0.534E-04    0.336E-04
RMM:  10    -0.138551464975E+03   -0.46644E-06   -0.10806E-07   426   0.384E-04    0.246E-04
RMM:  11    -0.138551465618E+03   -0.64264E-06   -0.11854E-07   417   0.388E-04    0.200E-04
RMM:  12    -0.138551466230E+03   -0.61220E-06   -0.24056E-07   420   0.524E-04    0.153E-04
RMM:  13    -0.138551466282E+03   -0.51828E-07   -0.22055E-08   354   0.267E-04    0.424E-05
RMM:  14    -0.138551466305E+03   -0.22955E-07   -0.10218E-08   320   0.179E-04    0.157E-05
RMM:  15    -0.138551466308E+03   -0.26372E-08   -0.18097E-09   269   0.906E-05
  11 F= -.13855147E+03 E0= -.13838951E+03  d E =-.769919E-02
 trial-energy change:   -0.007699  1 .order   -0.008416   -0.010945   -0.005886
 step:  24.0391(harm= 24.0391)  dis= 0.03207  next Energy=  -138.555608 (dE=-0.118E-01)
 bond charge predicted
       N       E                     dE             d eps       ncg     rms          rms(c)
DAV:   1    -0.138556965369E+03   -0.54991E-02   -0.19302E-01   464   0.985E-01    0.527E-02
RMM:   2    -0.138556897791E+03    0.67578E-04   -0.40715E-03   448   0.135E-01    0.256E-02
RMM:   3    -0.138556921845E+03   -0.24054E-04   -0.91340E-04   496   0.551E-02    0.116E-02
RMM:   4    -0.138556951511E+03   -0.29666E-04   -0.25074E-04   538   0.274E-02    0.599E-03
RMM:   5    -0.138556956963E+03   -0.54515E-05   -0.38808E-05   552   0.102E-02    0.323E-03
RMM:   6    -0.138556957349E+03   -0.38663E-06   -0.64017E-06   513   0.433E-03    0.835E-04
RMM:   7    -0.138556957085E+03    0.26467E-06   -0.19180E-06   560   0.232E-03    0.681E-04
RMM:   8    -0.138556956057E+03    0.10274E-05   -0.37481E-07   456   0.869E-04    0.584E-04
RMM:   9    -0.138556956042E+03    0.15646E-07   -0.15705E-07   463   0.626E-04    0.394E-04
RMM:  10    -0.138556956693E+03   -0.65146E-06   -0.14782E-07   426   0.449E-04    0.292E-04
RMM:  11    -0.138556957640E+03   -0.94723E-06   -0.17036E-07   430   0.454E-04    0.235E-04
RMM:  12    -0.138556958543E+03   -0.90325E-06   -0.34477E-07   426   0.615E-04    0.185E-04
RMM:  13    -0.138556958618E+03   -0.74189E-07   -0.30606E-08   369   0.316E-04    0.492E-05
RMM:  14    -0.138556958650E+03   -0.32290E-07   -0.14937E-08   331   0.218E-04    0.186E-05
RMM:  15    -0.138556958653E+03   -0.32738E-08   -0.27254E-09   285   0.111E-04
  12 F= -.13855696E+03 E0= -.13839558E+03  d E =-.131915E-01
 curvature: -19.02 expect dE=-0.108E-01 dE for cont linesearch -0.116E-02
 ZBRENT: increasing intervall
 opt :  49.8965  next Energy=  -138.559178 (dE=-0.154E-01)
 bond charge predicted
       N       E                     dE             d eps       ncg     rms          rms(c)
DAV:   1    -0.138552744308E+03    0.42143E-02   -0.77502E-01   448   0.197E+00    0.106E-01
RMM:   2    -0.138552473347E+03    0.27096E-03   -0.16300E-02   448   0.271E-01    0.517E-02
RMM:   3    -0.138552551405E+03   -0.78058E-04   -0.36036E-03   496   0.110E-01    0.230E-02
RMM:   4    -0.138552664429E+03   -0.11302E-03   -0.98802E-04   537   0.545E-02    0.117E-02
RMM:   5    -0.138552685963E+03   -0.21534E-04   -0.15843E-04   552   0.206E-02    0.650E-03
RMM:   6    -0.138552687184E+03   -0.12208E-05   -0.26039E-05   518   0.871E-03    0.170E-03
RMM:   7    -0.138552685920E+03    0.12637E-05   -0.75331E-06   560   0.456E-03    0.136E-03
RMM:   8    -0.138552680957E+03    0.49626E-05   -0.16212E-06   456   0.174E-03    0.115E-03
RMM:   9    -0.138552680795E+03    0.16276E-06   -0.60147E-07   484   0.123E-03    0.802E-04
RMM:  10    -0.138552683699E+03   -0.29049E-05   -0.61579E-07   452   0.889E-04    0.593E-04
RMM:  11    -0.138552688212E+03   -0.45124E-05   -0.73916E-07   457   0.875E-04    0.473E-04
RMM:  12    -0.138552692716E+03   -0.45044E-05   -0.16469E-06   463   0.128E-03    0.375E-04
RMM:  13    -0.138552693069E+03   -0.35291E-06   -0.13573E-07   406   0.673E-04    0.102E-04
RMM:  14    -0.138552693186E+03   -0.11717E-06   -0.65921E-08   379   0.464E-04    0.415E-05
RMM:  15    -0.138552693197E+03   -0.10729E-07   -0.13274E-08   347   0.229E-04    0.248E-05
RMM:  16    -0.138552693201E+03   -0.42872E-08   -0.43594E-09   324   0.138E-04
  13 F= -.13855269E+03 E0= -.13839231E+03  d E =-.892609E-02
 curvature: -36.51 expect dE=-0.706E-01 dE for cont linesearch -0.118E-01
 ZBRENT: bracketing found
 ZBRENT: interpolating
 opt :  31.8685  next Energy=  -138.558164 (dE=-0.144E-01)
 bond charge predicted
       N       E                     dE             d eps       ncg     rms          rms(c)
DAV:   1    -0.138558355754E+03   -0.56626E-02   -0.37522E-01   448   0.137E+00    0.739E-02
RMM:   2    -0.138558216397E+03    0.13936E-03   -0.80168E-03   448   0.188E-01    0.362E-02
RMM:   3    -0.138558254382E+03   -0.37985E-04   -0.18588E-03   496   0.781E-02    0.161E-02
RMM:   4    -0.138558307275E+03   -0.52893E-04   -0.50806E-04   538   0.393E-02    0.860E-03
RMM:   5    -0.138558317988E+03   -0.10713E-04   -0.77228E-05   552   0.144E-02    0.454E-03
RMM:   6    -0.138558318784E+03   -0.79614E-06   -0.13039E-05   515   0.618E-03    0.119E-03
RMM:   7    -0.138558318538E+03    0.24621E-06   -0.37594E-06   560   0.323E-03    0.936E-04
RMM:   8    -0.138558317132E+03    0.14055E-05   -0.69749E-07   456   0.120E-03    0.818E-04
RMM:   9    -0.138558317043E+03    0.89708E-07   -0.31947E-07   481   0.882E-04    0.533E-04
RMM:  10    -0.138558317744E+03   -0.70128E-06   -0.27955E-07   452   0.617E-04    0.405E-04
RMM:  11    -0.138558319052E+03   -0.13085E-05   -0.24640E-07   432   0.549E-04    0.334E-04
RMM:  12    -0.138558320633E+03   -0.15807E-05   -0.53782E-07   437   0.706E-04    0.243E-04
RMM:  13    -0.138558320827E+03   -0.19400E-06   -0.75443E-08   390   0.425E-04    0.658E-05
RMM:  14    -0.138558320839E+03   -0.11911E-07   -0.27973E-08   356   0.300E-04    0.239E-05
RMM:  15    -0.138558320840E+03   -0.11315E-08   -0.51502E-09   323   0.143E-04
  14 F= -.13855832E+03 E0= -.13839727E+03  d E =-.145537E-01
 curvature:  -3.74 expect dE=-0.307E-02 dE for cont linesearch -0.970E-06
 trial: gam= 0.82842 g(F)=  0.821E-03 g(S)=  0.000E+00 ort = 0.201E-04 (trialstep = 0.124E+02)
 search vector abs. value=  0.192E-02
 bond charge predicted
       N       E                     dE             d eps       ncg     rms          rms(c)
DAV:   1    -0.138565298676E+03   -0.69778E-02   -0.21499E-01   448   0.105E+00    0.544E-02
RMM:   2    -0.138565156495E+03    0.14218E-03   -0.38352E-03   448   0.132E-01    0.258E-02
RMM:   3    -0.138565198080E+03   -0.41584E-04   -0.93117E-04   510   0.553E-02    0.129E-02
RMM:   4    -0.138565225622E+03   -0.27542E-04   -0.20597E-04   544   0.254E-02    0.632E-03
RMM:   5    -0.138565230310E+03   -0.46885E-05   -0.30059E-05   560   0.881E-03    0.224E-03
RMM:   6    -0.138565230537E+03   -0.22700E-06   -0.45456E-06   535   0.361E-03    0.837E-04
RMM:   7    -0.138565230472E+03    0.65833E-07   -0.82212E-07   557   0.163E-03    0.379E-04
RMM:   8    -0.138565230275E+03    0.19706E-06   -0.16605E-07   485   0.694E-04    0.248E-04
RMM:   9    -0.138565230164E+03    0.11047E-06   -0.86704E-08   439   0.469E-04    0.181E-04
RMM:  10    -0.138565230103E+03    0.60850E-07   -0.57346E-08   390   0.329E-04    0.152E-04
RMM:  11    -0.138565230477E+03   -0.37381E-06   -0.72338E-08   388   0.296E-04    0.113E-04
RMM:  12    -0.138565230670E+03   -0.19297E-06   -0.70734E-08   381   0.311E-04    0.618E-05
RMM:  13    -0.138565230737E+03   -0.66710E-07   -0.28517E-08   364   0.237E-04    0.343E-05
RMM:  14    -0.138565230745E+03   -0.84185E-08   -0.40646E-09   319   0.135E-04
  15 F= -.13856523E+03 E0= -.13840427E+03  d E =-.690990E-02
 trial-energy change:   -0.006910  1 .order   -0.006461   -0.010356   -0.002567
 step:  15.2232(harm= 16.4393)  dis= 0.03064  next Energy=  -138.565533 (dE=-0.721E-02)
 bond charge predicted
       N       E                     dE             d eps       ncg     rms          rms(c)
DAV:   1    -0.138565694257E+03   -0.46352E-03   -0.11458E-02   464   0.243E-01    0.125E-02
RMM:   2    -0.138565687562E+03    0.66955E-05   -0.20513E-04   448   0.306E-02    0.595E-03
RMM:   3    -0.138565690262E+03   -0.26998E-05   -0.50424E-05   511   0.128E-02    0.297E-03
RMM:   4    -0.138565691984E+03   -0.17223E-05   -0.11014E-05   544   0.589E-03    0.147E-03
RMM:   5    -0.138565692250E+03   -0.26564E-06   -0.16241E-06   560   0.204E-03    0.509E-04
RMM:   6    -0.138565692250E+03   -0.34072E-09   -0.24804E-07   537   0.839E-04    0.199E-04
RMM:   7    -0.138565692240E+03    0.10096E-07   -0.33743E-08   393   0.367E-04    0.867E-05
RMM:   8    -0.138565692231E+03    0.90001E-08   -0.10540E-08   340   0.216E-04
  16 F= -.13856569E+03 E0= -.13840475E+03  d E =-.737139E-02
 curvature: -17.20 expect dE=-0.105E-01 dE for cont linesearch -0.508E-04
 trial: gam= 0.29492 g(F)=  0.613E-03 g(S)=  0.000E+00 ort = 0.754E-04 (trialstep = 0.129E+02)
 search vector abs. value=  0.825E-03
 bond charge predicted
       N       E                     dE             d eps       ncg     rms          rms(c)
DAV:   1    -0.138572204481E+03   -0.65122E-02   -0.10455E-01   448   0.727E-01    0.360E-02
RMM:   2    -0.138572177909E+03    0.26571E-04   -0.14904E-03   448   0.824E-02    0.190E-02
RMM:   3    -0.138572178355E+03   -0.44629E-06   -0.34038E-04   495   0.337E-02    0.794E-03
RMM:   4    -0.138572187598E+03   -0.92423E-05   -0.87343E-05   549   0.164E-02    0.368E-03
RMM:   5    -0.138572189181E+03   -0.15829E-05   -0.11324E-05   560   0.583E-03    0.122E-03
RMM:   6    -0.138572189366E+03   -0.18570E-06   -0.15858E-06   548   0.220E-03    0.499E-04
RMM:   7    -0.138572189457E+03   -0.90794E-07   -0.29611E-07   549   0.956E-04    0.190E-04
RMM:   8    -0.138572189518E+03   -0.61201E-07   -0.56508E-08   441   0.427E-04    0.111E-04
RMM:   9    -0.138572189525E+03   -0.70795E-08   -0.15986E-08   349   0.266E-04
  17 F= -.13857219E+03 E0= -.13841091E+03  d E =-.649729E-02
 trial-energy change:   -0.006497  1 .order   -0.006566   -0.008217   -0.004914
 step:  49.9347(harm= 32.1850)  dis= 0.05615  next Energy=  -138.577616 (dE=-0.119E-01)
 bond charge predicted
       N       E                     dE             d eps       ncg     rms          rms(c)
DAV:   1    -0.138575732882E+03   -0.35434E-02   -0.85631E-01   448   0.208E+00    0.102E-01
RMM:   2    -0.138575520079E+03    0.21280E-03   -0.12151E-02   448   0.236E-01    0.542E-02
RMM:   3    -0.138575522395E+03   -0.23161E-05   -0.27186E-03   494   0.958E-02    0.226E-02
RMM:   4    -0.138575597321E+03   -0.74925E-04   -0.70399E-04   547   0.468E-02    0.103E-02
RMM:   5    -0.138575611259E+03   -0.13938E-04   -0.94556E-05   560   0.168E-02    0.357E-03
RMM:   6    -0.138575613099E+03   -0.18400E-05   -0.12849E-05   549   0.628E-03    0.143E-03
RMM:   7    -0.138575613958E+03   -0.85869E-06   -0.23977E-06   551   0.271E-03    0.538E-04
RMM:   8    -0.138575614564E+03   -0.60633E-06   -0.48272E-07   500   0.123E-03    0.306E-04
RMM:   9    -0.138575614650E+03   -0.86218E-07   -0.18777E-07   522   0.759E-04    0.170E-04
RMM:  10    -0.138575614905E+03   -0.25501E-06   -0.56833E-08   395   0.333E-04    0.192E-04
RMM:  11    -0.138575615017E+03   -0.11168E-06   -0.37781E-08   373   0.297E-04    0.116E-04
RMM:  12    -0.138575615056E+03   -0.39302E-07   -0.17974E-08   352   0.229E-04    0.625E-05
RMM:  13    -0.138575615058E+03   -0.16630E-08   -0.56192E-09   341   0.158E-04
  18 F= -.13857562E+03 E0= -.13841342E+03  d E =-.992283E-02
 curvature:  -3.13 expect dE=-0.311E-02 dE for cont linesearch -0.142E-03
 ZBRENT: interpolating
 opt :  37.4385  next Energy=  -138.576826 (dE=-0.111E-01)
 bond charge predicted
       N       E                     dE             d eps       ncg     rms          rms(c)
DAV:   1    -0.138577238173E+03   -0.16231E-02   -0.97822E-02   448   0.702E-01    0.347E-02
RMM:   2    -0.138577210804E+03    0.27369E-04   -0.13627E-03   448   0.787E-02    0.183E-02
RMM:   3    -0.138577212084E+03   -0.12801E-05   -0.31784E-04   495   0.326E-02    0.766E-03
RMM:   4    -0.138577220762E+03   -0.86778E-05   -0.81866E-05   550   0.159E-02    0.358E-03
RMM:   5    -0.138577222471E+03   -0.17094E-05   -0.10463E-05   560   0.561E-03    0.118E-03
RMM:   6    -0.138577222681E+03   -0.20978E-06   -0.14816E-06   549   0.213E-03    0.489E-04
RMM:   7    -0.138577222787E+03   -0.10587E-06   -0.26226E-07   544   0.917E-04    0.175E-04
RMM:   8    -0.138577222848E+03   -0.60494E-07   -0.55708E-08   430   0.427E-04    0.100E-04
RMM:   9    -0.138577222854E+03   -0.61705E-08   -0.18168E-08   355   0.268E-04
  19 F= -.13857722E+03 E0= -.13841532E+03  d E =-.115306E-01
 curvature: -26.60 expect dE=-0.143E-01 dE for cont linesearch -0.843E-04
 trial: gam= 0.86008 g(F)=  0.536E-03 g(S)=  0.000E+00 ort = 0.511E-04 (trialstep = 0.119E+02)
 search vector abs. value=  0.123E-02
 bond charge predicted
       N       E                     dE             d eps       ncg     rms          rms(c)
DAV:   1    -0.138581567558E+03   -0.43447E-02   -0.12848E-01   448   0.813E-01    0.365E-02
RMM:   2    -0.138581588693E+03   -0.21135E-04   -0.15820E-03   448   0.862E-02    0.202E-02
RMM:   3    -0.138581612404E+03   -0.23711E-04   -0.43953E-04   502   0.382E-02    0.881E-03
RMM:   4    -0.138581628288E+03   -0.15885E-04   -0.10818E-04   559   0.187E-02    0.438E-03
RMM:   5    -0.138581630612E+03   -0.23238E-05   -0.12157E-05   545   0.607E-03    0.953E-04
RMM:   6    -0.138581630833E+03   -0.22056E-06   -0.25112E-06   564   0.274E-03    0.725E-04
RMM:   7    -0.138581630820E+03    0.12378E-07   -0.32170E-07   506   0.968E-04    0.257E-04
RMM:   8    -0.138581630844E+03   -0.23788E-07   -0.10588E-07   481   0.581E-04    0.180E-04
RMM:   9    -0.138581630851E+03   -0.70351E-08   -0.47907E-08   396   0.312E-04
  20 F= -.13858163E+03 E0= -.13841965E+03  d E =-.440800E-02
 trial-energy change:   -0.004408  1 .order   -0.004232   -0.006915   -0.001549
 step:  14.6889(harm= 15.3595)  dis= 0.01906  next Energy=  -138.581813 (dE=-0.459E-02)
 bond charge predicted
       N       E                     dE             d eps       ncg     rms          rms(c)
DAV:   1    -0.138581901010E+03   -0.27017E-03   -0.69251E-03   448   0.189E-01    0.853E-03
RMM:   2    -0.138581902759E+03   -0.17489E-05   -0.86387E-05   448   0.201E-02    0.470E-03
RMM:   3    -0.138581904481E+03   -0.17228E-05   -0.24605E-05   505   0.898E-03    0.207E-03
RMM:   4    -0.138581905493E+03   -0.10121E-05   -0.57744E-06   560   0.433E-03    0.103E-03
RMM:   5    -0.138581905611E+03   -0.11746E-06   -0.60501E-07   541   0.139E-03    0.219E-04
RMM:   6    -0.138581905619E+03   -0.80574E-08   -0.13736E-07   505   0.652E-04    0.172E-04
RMM:   7    -0.138581905610E+03    0.84942E-08   -0.16880E-08   352   0.249E-04
  21 F= -.13858191E+03 E0= -.13841991E+03  d E =-.468276E-02
 curvature: -15.72 expect dE=-0.632E-02 dE for cont linesearch -0.597E-04
 trial: gam= 0.31430 g(F)=  0.402E-03 g(S)=  0.000E+00 ort = 0.685E-04 (trialstep = 0.125E+02)
 search vector abs. value=  0.567E-03
 bond charge predicted
       N       E                     dE             d eps       ncg     rms          rms(c)
DAV:   1    -0.138585625105E+03   -0.37195E-02   -0.66799E-02   448   0.576E-01    0.224E-02
RMM:   2    -0.138585661978E+03   -0.36873E-04   -0.62938E-04   448   0.573E-02    0.136E-02
RMM:   3    -0.138585672372E+03   -0.10394E-04   -0.16996E-04   493   0.246E-02    0.447E-03
RMM:   4    -0.138585677729E+03   -0.53576E-05   -0.39311E-05   548   0.116E-02    0.207E-03
RMM:   5    -0.138585678153E+03   -0.42343E-06   -0.54248E-06   545   0.399E-03    0.590E-04
RMM:   6    -0.138585678202E+03   -0.49127E-07   -0.98874E-07   559   0.170E-03    0.469E-04
RMM:   7    -0.138585678100E+03    0.10199E-06   -0.13448E-07   480   0.645E-04    0.228E-04
RMM:   8    -0.138585678136E+03   -0.36234E-07   -0.45957E-08   417   0.391E-04    0.187E-04
RMM:   9    -0.138585678340E+03   -0.20393E-06   -0.73019E-08   417   0.302E-04    0.234E-04
RMM:  10    -0.138585678513E+03   -0.17276E-06   -0.31554E-08   373   0.245E-04    0.122E-04
RMM:  11    -0.138585678687E+03   -0.17434E-06   -0.43111E-08   367   0.256E-04    0.735E-05
RMM:  12    -0.138585678748E+03   -0.60970E-07   -0.20864E-08   361   0.216E-04    0.537E-05
RMM:  13    -0.138585678757E+03   -0.92609E-08   -0.80155E-09   337   0.159E-04
  22 F= -.13858568E+03 E0= -.13842389E+03  d E =-.377315E-02
 trial-energy change:   -0.003773  1 .order   -0.003795   -0.005286   -0.002304
 step:  22.9638(harm= 22.1113)  dis= 0.01699  next Energy=  -138.586635 (dE=-0.473E-02)
 bond charge predicted
       N       E                     dE             d eps       ncg     rms          rms(c)
DAV:   1    -0.138586391583E+03   -0.71283E-03   -0.47252E-02   448   0.484E-01    0.189E-02
RMM:   2    -0.138586417843E+03   -0.26260E-04   -0.44517E-04   448   0.482E-02    0.114E-02
RMM:   3    -0.138586425582E+03   -0.77386E-05   -0.12070E-04   493   0.207E-02    0.373E-03
RMM:   4    -0.138586429531E+03   -0.39499E-05   -0.27895E-05   548   0.978E-03    0.175E-03
RMM:   5    -0.138586429854E+03   -0.32299E-06   -0.38574E-06   544   0.337E-03    0.488E-04
RMM:   6    -0.138586429891E+03   -0.36477E-07   -0.71205E-07   559   0.144E-03    0.388E-04
RMM:   7    -0.138586429806E+03    0.84798E-07   -0.93472E-08   463   0.545E-04    0.160E-04
RMM:   8    -0.138586429818E+03   -0.11976E-07   -0.28379E-08   374   0.326E-04    0.133E-04
RMM:   9    -0.138586429873E+03   -0.55233E-07   -0.34670E-08   395   0.248E-04    0.170E-04
RMM:  10    -0.138586429963E+03   -0.89590E-07   -0.16468E-08   354   0.197E-04    0.871E-05
RMM:  11    -0.138586430061E+03   -0.97696E-07   -0.22365E-08   356   0.197E-04    0.568E-05
RMM:  12    -0.138586430103E+03   -0.42507E-07   -0.14225E-08   339   0.182E-04    0.472E-05
RMM:  13    -0.138586430107E+03   -0.36259E-08   -0.50025E-09   314   0.129E-04
  23 F= -.13858643E+03 E0= -.13842479E+03  d E =-.452450E-02
 curvature: -14.68 expect dE=-0.441E-02 dE for cont linesearch -0.907E-05
 trial: gam= 0.72401 g(F)=  0.300E-03 g(S)=  0.000E+00 ort =-0.187E-04 (trialstep = 0.145E+02)
 search vector abs. value=  0.571E-03
 bond charge predicted
       N       E                     dE             d eps       ncg     rms          rms(c)
DAV:   1    -0.138589149603E+03   -0.27195E-02   -0.89464E-02   448   0.666E-01    0.255E-02
RMM:   2    -0.138589192126E+03   -0.42522E-04   -0.68246E-04   448   0.585E-02    0.156E-02
RMM:   3    -0.138589210333E+03   -0.18207E-04   -0.21025E-04   495   0.275E-02    0.574E-03
RMM:   4    -0.138589218571E+03   -0.82379E-05   -0.52329E-05   544   0.133E-02    0.220E-03
RMM:   5    -0.138589219271E+03   -0.69990E-06   -0.87390E-06   560   0.480E-03    0.869E-04
RMM:   6    -0.138589219247E+03    0.23928E-07   -0.12532E-06   557   0.190E-03    0.527E-04
RMM:   7    -0.138589219025E+03    0.22181E-06   -0.20293E-07   507   0.776E-04    0.272E-04
RMM:   8    -0.138589219082E+03   -0.57315E-07   -0.67155E-08   457   0.462E-04    0.215E-04
RMM:   9    -0.138589219135E+03   -0.53139E-07   -0.98895E-08   431   0.346E-04    0.327E-04
RMM:  10    -0.138589219432E+03   -0.29633E-06   -0.44192E-08   378   0.261E-04    0.142E-04
RMM:  11    -0.138589219719E+03   -0.28765E-06   -0.62442E-08   381   0.282E-04    0.106E-04
RMM:  12    -0.138589219882E+03   -0.16309E-06   -0.58587E-08   373   0.302E-04    0.947E-05
RMM:  13    -0.138589219896E+03   -0.13349E-07   -0.10923E-08   343   0.183E-04    0.521E-05
RMM:  14    -0.138589219900E+03   -0.43309E-08   -0.29683E-09   292   0.108E-04
  24 F= -.13858922E+03 E0= -.13842783E+03  d E =-.278979E-02
 trial-energy change:   -0.002790  1 .order   -0.002888   -0.004154   -0.001622
 step:  23.7685(harm= 23.7685)  dis= 0.02056  next Energy=  -138.589838 (dE=-0.341E-02)
 bond charge predicted
       N       E                     dE             d eps       ncg     rms          rms(c)
DAV:   1    -0.138589456805E+03   -0.23691E-03   -0.36687E-02   448   0.426E-01    0.164E-02
RMM:   2    -0.138589474974E+03   -0.18169E-04   -0.28123E-04   448   0.375E-02    0.100E-02
RMM:   3    -0.138589483146E+03   -0.81719E-05   -0.86968E-05   495   0.177E-02    0.368E-03
RMM:   4    -0.138589486797E+03   -0.36513E-05   -0.21658E-05   544   0.854E-03    0.142E-03
RMM:   5    -0.138589487033E+03   -0.23544E-06   -0.36061E-06   560   0.309E-03    0.553E-04
RMM:   6    -0.138589487021E+03    0.12285E-07   -0.51872E-07   556   0.122E-03    0.339E-04
RMM:   7    -0.138589486911E+03    0.10978E-06   -0.84099E-08   461   0.500E-04    0.172E-04
RMM:   8    -0.138589486941E+03   -0.30345E-07   -0.21833E-08   364   0.291E-04    0.136E-04
RMM:   9    -0.138589486974E+03   -0.33003E-07   -0.44419E-08   404   0.256E-04    0.198E-04
RMM:  10    -0.138589487107E+03   -0.13285E-06   -0.25589E-08   370   0.208E-04    0.782E-05
RMM:  11    -0.138589487203E+03   -0.95862E-07   -0.19431E-08   360   0.185E-04    0.695E-05
RMM:  12    -0.138589487275E+03   -0.72419E-07   -0.22043E-08   350   0.194E-04    0.703E-05
RMM:  13    -0.138589487276E+03   -0.37801E-09   -0.54339E-09   319   0.127E-04
  25 F= -.13858949E+03 E0= -.13842824E+03  d E =-.305717E-02
 curvature: -23.65 expect dE=-0.953E-02 dE for cont linesearch -0.107E-03
 trial: gam= 1.24019 g(F)=  0.403E-03 g(S)=  0.000E+00 ort =-0.508E-04 (trialstep = 0.807E+01)
 search vector abs. value=  0.115E-02
 bond charge predicted
       N       E                     dE             d eps       ncg     rms          rms(c)
DAV:   1    -0.138591402163E+03   -0.19149E-02   -0.55394E-02   448   0.531E-01    0.226E-02
RMM:   2    -0.138591406966E+03   -0.48032E-05   -0.61374E-04   448   0.547E-02    0.123E-02
RMM:   3    -0.138591418679E+03   -0.11713E-04   -0.15747E-04   505   0.234E-02    0.610E-03
RMM:   4    -0.138591424714E+03   -0.60350E-05   -0.37572E-05   560   0.110E-02    0.239E-03
RMM:   5    -0.138591425327E+03   -0.61303E-06   -0.42142E-06   560   0.349E-03    0.771E-04
RMM:   6    -0.138591425325E+03    0.24534E-08   -0.70278E-07   545   0.146E-03    0.416E-04
RMM:   7    -0.138591425282E+03    0.42999E-07   -0.12937E-07   510   0.646E-04    0.119E-04
RMM:   8    -0.138591425283E+03   -0.17444E-08   -0.28198E-08   378   0.321E-04
  26 F= -.13859143E+03 E0= -.13843020E+03  d E =-.193801E-02
 trial-energy change:   -0.001938  1 .order   -0.002104   -0.002747   -0.001460
 step:  17.2300(harm= 17.2300)  dis= 0.01740  next Energy=  -138.592418 (dE=-0.293E-02)
 bond charge predicted
       N       E                     dE             d eps       ncg     rms          rms(c)
DAV:   1    -0.138591724815E+03   -0.29953E-03   -0.71286E-02   448   0.602E-01    0.256E-02
RMM:   2    -0.138591731852E+03   -0.70368E-05   -0.78753E-04   448   0.619E-02    0.140E-02
RMM:   3    -0.138591746970E+03   -0.15118E-04   -0.20230E-04   505   0.265E-02    0.692E-03
RMM:   4    -0.138591754663E+03   -0.76926E-05   -0.48525E-05   561   0.125E-02    0.272E-03
RMM:   5    -0.138591755349E+03   -0.68630E-06   -0.50301E-06   557   0.388E-03    0.868E-04
RMM:   6    -0.138591755326E+03    0.23321E-07   -0.89082E-07   541   0.166E-03    0.468E-04
RMM:   7    -0.138591755255E+03    0.70642E-07   -0.17188E-07   521   0.739E-04    0.156E-04
RMM:   8    -0.138591755257E+03   -0.18085E-08   -0.35693E-08   393   0.359E-04
  27 F= -.13859176E+03 E0= -.13843055E+03  d E =-.226798E-02
 curvature: -29.24 expect dE=-0.167E-01 dE for cont linesearch -0.304E-03
 trial: gam= 0.80214 g(F)=  0.572E-03 g(S)=  0.000E+00 ort =-0.110E-03 (trialstep = 0.991E+01)
 search vector abs. value=  0.114E-02
 bond charge predicted
       N       E                     dE             d eps       ncg     rms          rms(c)
DAV:   1    -0.138594631263E+03   -0.28760E-02   -0.82966E-02   448   0.652E-01    0.320E-02
RMM:   2    -0.138594594383E+03    0.36880E-04   -0.10109E-03   448   0.676E-02    0.167E-02
RMM:   3    -0.138594601690E+03   -0.73075E-05   -0.28309E-04   502   0.302E-02    0.728E-03
RMM:   4    -0.138594611122E+03   -0.94316E-05   -0.71761E-05   556   0.149E-02    0.352E-03
RMM:   5    -0.138594612489E+03   -0.13668E-05   -0.77457E-06   555   0.483E-03    0.890E-04
RMM:   6    -0.138594612605E+03   -0.11603E-06   -0.14481E-06   553   0.210E-03    0.511E-04
RMM:   7    -0.138594612650E+03   -0.45592E-07   -0.20900E-07   530   0.802E-04    0.180E-04
RMM:   8    -0.138594612677E+03   -0.26647E-07   -0.54691E-08   419   0.432E-04    0.108E-04
RMM:   9    -0.138594612695E+03   -0.18309E-07   -0.19878E-08   353   0.261E-04    0.763E-05
RMM:  10    -0.138594612712E+03   -0.17018E-07   -0.20221E-08   354   0.224E-04    0.424E-05
RMM:  11    -0.138594612728E+03   -0.15431E-07   -0.79966E-09   341   0.163E-04    0.389E-05
RMM:  12    -0.138594612747E+03   -0.19646E-07   -0.47299E-09   334   0.124E-04    0.255E-05
RMM:  13    -0.138594612759E+03   -0.11196E-07   -0.45452E-09   318   0.107E-04    0.240E-05
RMM:  14    -0.138594612763E+03   -0.43667E-08   -0.18495E-09   262   0.800E-05
  28 F= -.13859461E+03 E0= -.13843318E+03  d E =-.285751E-02
 trial-energy change:   -0.002858  1 .order   -0.003387   -0.004795   -0.001980
 step:  16.8732(harm= 16.8732)  dis= 0.02064  next Energy=  -138.595839 (dE=-0.408E-02)
 bond charge predicted
       N       E                     dE             d eps       ncg     rms          rms(c)
DAV:   1    -0.138595179712E+03   -0.56695E-03   -0.41136E-02   448   0.459E-01    0.225E-02
RMM:   2    -0.138595161440E+03    0.18272E-04   -0.49899E-04   448   0.475E-02    0.118E-02
RMM:   3    -0.138595165225E+03   -0.37847E-05   -0.14042E-04   503   0.212E-02    0.513E-03
RMM:   4    -0.138595169958E+03   -0.47327E-05   -0.34870E-05   557   0.104E-02    0.248E-03
RMM:   5    -0.138595170686E+03   -0.72849E-06   -0.37391E-06   555   0.336E-03    0.606E-04
RMM:   6    -0.138595170763E+03   -0.76698E-07   -0.71152E-07   554   0.147E-03    0.357E-04
RMM:   7    -0.138595170802E+03   -0.39334E-07   -0.99933E-08   485   0.555E-04    0.122E-04
RMM:   8    -0.138595170827E+03   -0.24763E-07   -0.25041E-08   371   0.312E-04    0.694E-05
RMM:   9    -0.138595170845E+03   -0.17509E-07   -0.12189E-08   345   0.221E-04    0.405E-05
RMM:  10    -0.138595170853E+03   -0.82282E-08   -0.88469E-09   342   0.175E-04
  29 F= -.13859517E+03 E0= -.13843359E+03  d E =-.341560E-02
 curvature: -19.86 expect dE=-0.467E-02 dE for cont linesearch -0.427E-04
 ZBRENT: interpolating
 opt :  15.4908  next Energy=  -138.595205 (dE=-0.345E-02)
 bond charge predicted
       N       E                     dE             d eps       ncg     rms          rms(c)
DAV:   1    -0.138595221353E+03   -0.50508E-04   -0.16215E-03   464   0.911E-02    0.448E-03
RMM:   2    -0.138595220321E+03    0.10320E-05   -0.19563E-05   448   0.941E-03    0.234E-03
RMM:   3    -0.138595220332E+03   -0.11184E-07   -0.54287E-06   502   0.419E-03    0.102E-03
RMM:   4    -0.138595220454E+03   -0.12243E-06   -0.13794E-06   557   0.207E-03    0.488E-04
RMM:   5    -0.138595220498E+03   -0.44032E-07   -0.14812E-07   526   0.669E-04    0.124E-04
RMM:   6    -0.138595220502E+03   -0.41232E-08   -0.21375E-08   360   0.292E-04
  30 F= -.13859522E+03 E0= -.13843367E+03  d E =-.346525E-02
 curvature: -15.92 expect dE=-0.352E-02 dE for cont linesearch -0.160E-06
 trial: gam= 0.16046 g(F)=  0.221E-03 g(S)=  0.000E+00 ort = 0.338E-05 (trialstep = 0.110E+02)
 search vector abs. value=  0.252E-03
 bond charge predicted
       N       E                     dE             d eps       ncg     rms          rms(c)
DAV:   1    -0.138596680506E+03   -0.14600E-02   -0.23300E-02   448   0.342E-01    0.143E-02
RMM:   2    -0.138596682802E+03   -0.22954E-05   -0.22524E-04   448   0.337E-02    0.821E-03
RMM:   3    -0.138596684761E+03   -0.19593E-05   -0.64582E-05   493   0.147E-02    0.316E-03
RMM:   4    -0.138596686768E+03   -0.20070E-05   -0.15593E-05   528   0.730E-03    0.119E-03
RMM:   5    -0.138596687067E+03   -0.29860E-06   -0.29913E-06   561   0.287E-03    0.516E-04
RMM:   6    -0.138596687087E+03   -0.20979E-07   -0.38823E-07   561   0.110E-03    0.239E-04
RMM:   7    -0.138596687079E+03    0.88220E-08   -0.54897E-08   441   0.421E-04
  31 F= -.13859669E+03 E0= -.13843512E+03  d E =-.146658E-02
 trial-energy change:   -0.001467  1 .order   -0.001605   -0.002446   -0.000764
 step:  16.0245(harm= 16.0245)  dis= 0.00853  next Energy=  -138.596999 (dE=-0.178E-02)
 reached required accuracy - stopping structural energy minimisation
