unknown system                          
           1
    -8.899898    8.899898    0.000000
   -17.799795   -0.000000    0.000000
     0.000000    0.000000   35.074987
   Na
   108
Direct configuration=     1
   0.00000000  0.00000003  0.23086898
   0.00000000  0.16666667  0.17106208
   0.00000000  0.00000003  0.35048277
   0.00000000  0.16666667  0.29067586
   0.00000000  0.00000003  0.47009656
   0.00000000  0.16666667  0.41028965
   0.00000000  0.00000003  0.58971035
   0.00000000  0.16666667  0.52990344
   0.00000000  0.00000003  0.70932414
   0.00000000  0.16666667  0.64951723
   0.00000000  0.00000003  0.82893792
   0.00000000  0.16666667  0.76913102
   0.33333333  0.00000003  0.23086898
   0.33333333  0.16666667  0.17106208
   0.33333333  0.00000003  0.35048277
   0.33333333  0.16666667  0.29067586
   0.33333333  0.00000003  0.47009656
   0.33333333  0.16666667  0.41028965
   0.33333333  0.00000003  0.58971035
   0.33333333  0.16666667  0.52990344
   0.33333333  0.00000003  0.70932414
   0.33333333  0.16666667  0.64951723
   0.33333333  0.00000003  0.82893792
   0.33333333  0.16666667  0.76913102
   0.00000000  0.33333337  0.23086898
   0.00000000  0.50000000  0.17106208
   0.00000000  0.33333337  0.35048277
   0.00000000  0.50000000  0.29067586
   0.00000000  0.33333337  0.47009656
   0.00000000  0.50000000  0.41028965
   0.00000000  0.33333337  0.58971035
   0.00000000  0.50000000  0.52990344
   0.00000000  0.33333337  0.70932414
   0.00000000  0.50000000  0.64951723
   0.00000000  0.33333337  0.82893792
   0.00000000  0.50000000  0.76913102
   0.66666667  0.00000003  0.23086898
   0.66666667  0.16666667  0.17106208
   0.66666667  0.00000003  0.35048277
   0.66666667  0.16666667  0.29067586
   0.66666667  0.00000003  0.47009656
   0.66666667  0.16666667  0.41028965
   0.66666667  0.00000003  0.58971035
   0.66666667  0.16666667  0.52990344
   0.66666667  0.00000003  0.70932414
   0.66666667  0.16666667  0.64951723
   0.66666667  0.00000003  0.82893792
   0.66666667  0.16666667  0.76913102
   0.33333333  0.33333337  0.23086898
   0.33333333  0.50000000  0.17106208
   0.33333333  0.33333337  0.35048277
   0.33333333  0.50000000  0.29067586
   0.33333333  0.33333337  0.47009656
   0.33333333  0.50000000  0.41028965
   0.33333333  0.33333337  0.58971035
   0.33333333  0.50000000  0.52990344
   0.33333333  0.33333337  0.70932414
   0.33333333  0.50000000  0.64951723
   0.33333333  0.33333337  0.82893792
   0.33333333  0.50000000  0.76913102
   0.00000000  0.66666670  0.23086898
   0.00000000  0.83333333  0.17106208
   0.00000000  0.66666670  0.35048277
   0.00000000  0.83333333  0.29067586
   0.00000000  0.66666670  0.47009656
   0.00000000  0.83333333  0.41028965
   0.00000000  0.66666670  0.58971035
   0.00000000  0.83333333  0.52990344
   0.00000000  0.66666670  0.70932414
   0.00000000  0.83333333  0.64951723
   0.00000000  0.66666670  0.82893792
   0.00000000  0.83333333  0.76913102
   0.66666667  0.33333337  0.23086898
   0.66666667  0.50000000  0.17106208
   0.66666667  0.33333337  0.35048277
   0.66666667  0.50000000  0.29067586
   0.66666667  0.33333337  0.47009656
   0.66666667  0.50000000  0.41028965
   0.66666667  0.33333337  0.58971035
   0.66666667  0.50000000  0.52990344
   0.66666667  0.33333337  0.70932414
   0.66666667  0.50000000  0.64951723
   0.66666667  0.33333337  0.82893792
   0.66666667  0.50000000  0.76913102
   0.33333333  0.66666670  0.23086898
   0.33333333  0.83333333  0.17106208
   0.33333333  0.66666670  0.35048277
   0.33333333  0.83333333  0.29067586
   0.33333333  0.66666670  0.47009656
   0.33333333  0.83333333  0.41028965
   0.33333333  0.66666670  0.58971035
   0.33333333  0.83333333  0.52990344
   0.33333333  0.66666670  0.70932414
   0.33333333  0.83333333  0.64951723
   0.33333333  0.66666670  0.82893792
   0.33333333  0.83333333  0.76913102
   0.66666667  0.66666670  0.23086898
   0.66666667  0.83333333  0.17106208
   0.66666667  0.66666670  0.35048277
   0.66666667  0.83333333  0.29067586
   0.66666667  0.66666670  0.47009656
   0.66666667  0.83333333  0.41028965
   0.66666667  0.66666670  0.58971035
   0.66666667  0.83333333  0.52990344
   0.66666667  0.66666670  0.70932414
   0.66666667  0.83333333  0.64951723
   0.66666667  0.66666670  0.82893792
   0.66666667  0.83333333  0.76913102
Direct configuration=     2
   0.00000000  0.00000003  0.23090219
  -0.00000000  0.16666667  0.17112562
   0.00000000  0.00000003  0.35049267
   0.00000000  0.16666667  0.29061444
  -0.00000000  0.00000003  0.47011049
   0.00000000  0.16666667  0.41029472
  -0.00000000  0.00000003  0.58970528
  -0.00000000  0.16666667  0.52988951
   0.00000000  0.00000003  0.70938556
  -0.00000000  0.16666667  0.64950733
  -0.00000000  0.00000003  0.82887438
  -0.00000000  0.16666667  0.76909781
   0.33334056 -0.00001864  0.23089567
   0.33332186  0.16666682  0.17114079
   0.33335470 -0.00000903  0.35047762
   0.33334867  0.16664433  0.29061961
   0.33334820 -0.00001266  0.47009478
   0.33331692  0.16668191  0.41030959
   0.33331692  0.00001528  0.58969041
   0.33334820  0.16665398  0.52990522
   0.33334867 -0.00002230  0.70938039
   0.33335470  0.16665760  0.64952238
   0.33332186  0.00000019  0.82885921
   0.33334056  0.16664799  0.76910433
  -0.00000000  0.33333337  0.23090219
  -0.00000000  0.50000000  0.17112562
  -0.00000000  0.33333337  0.35049267
  -0.00000000  0.50000000  0.29061444
   0.00000000  0.33333337  0.47011049
   0.00000000  0.50000000  0.41029472
   0.00000000  0.33333337  0.58970528
   0.00000000  0.50000000  0.52988951
  -0.00000000  0.33333337  0.70938556
  -0.00000000  0.50000000  0.64950733
   0.00000000  0.33333337  0.82887438
  -0.00000000  0.50000000  0.76909781
   0.66665944  0.00001870  0.23089567
   0.66667814  0.16666651  0.17114079
   0.66664530  0.00000909  0.35047762
   0.66665133  0.16668900  0.29061961
   0.66665180  0.00001272  0.47009478
   0.66668308  0.16665142  0.41030959
   0.66668308 -0.00001521  0.58969041
   0.66665180  0.16667936  0.52990522
   0.66665133  0.00002237  0.70938039
   0.66664530  0.16667573  0.64952238
   0.66667814 -0.00000012  0.82885921
   0.66665944  0.16668534  0.76910433
   0.33334056  0.33331470  0.23089567
   0.33332186  0.50000015  0.17114079
   0.33335470  0.33332431  0.35047762
   0.33334867  0.49997767  0.29061961
   0.33334820  0.33332068  0.47009478
   0.33331692  0.50001525  0.41030959
   0.33331692  0.33334861  0.58969041
   0.33334820  0.49998731  0.52990522
   0.33334867  0.33331103  0.70938039
   0.33335470  0.49999094  0.64952238
   0.33332186  0.33333352  0.82885921
   0.33334056  0.49998133  0.76910433
   0.00000000  0.66666670  0.23090219
  -0.00000000  0.83333333  0.17112562
  -0.00000000  0.66666670  0.35049267
   0.00000000  0.83333333  0.29061444
   0.00000000  0.66666670  0.47011049
  -0.00000000  0.83333333  0.41029472
  -0.00000000  0.66666670  0.58970528
  -0.00000000  0.83333333  0.52988951
   0.00000000  0.66666670  0.70938556
   0.00000000  0.83333333  0.64950733
  -0.00000000  0.66666670  0.82887438
  -0.00000000  0.83333333  0.76909781
   0.66665944  0.33335204  0.23089567
   0.66667814  0.49999985  0.17114079
   0.66664530  0.33334243  0.35047762
   0.66665133  0.50002233  0.29061961
   0.66665180  0.33334606  0.47009478
   0.66668308  0.49998475  0.41030959
   0.66668308  0.33331812  0.58969041
   0.66665180  0.50001269  0.52990522
   0.66665133  0.33335570  0.70938039
   0.66664530  0.50000906  0.64952238
   0.66667814  0.33333321  0.82885921
   0.66665944  0.50001867  0.76910433
   0.33334056  0.66664803  0.23089567
   0.33332186  0.83333348  0.17114079
   0.33335470  0.66665764  0.35047762
   0.33334867  0.83331100  0.29061961
   0.33334820  0.66665401  0.47009478
   0.33331692  0.83334858  0.41030959
   0.33331692  0.66668195  0.58969041
   0.33334820  0.83332064  0.52990522
   0.33334867  0.66664437  0.70938039
   0.33335470  0.83332427  0.64952238
   0.33332186  0.66666685  0.82885921
   0.33334056  0.83331466  0.76910433
   0.66665944  0.66668537  0.23089567
   0.66667814  0.83333318  0.17114079
   0.66664530  0.66667576  0.35047762
   0.66665133  0.83335567  0.29061961
   0.66665180  0.66667939  0.47009478
   0.66668308  0.83331809  0.41030959
   0.66668308  0.66665145  0.58969041
   0.66665180  0.83334602  0.52990522
   0.66665133  0.66668903  0.70938039
   0.66664530  0.83334239  0.64952238
   0.66667814  0.66666655  0.82885921
   0.66665944  0.83335200  0.76910433
Direct configuration=     3
   0.00000000  0.00000003  0.23100181
  -0.00000000  0.16666666  0.17131627
   0.00000000  0.00000003  0.35052236
   0.00000000  0.16666667  0.29043017
  -0.00000000  0.00000004  0.47015230
   0.00000000  0.16666667  0.41030992
  -0.00000000  0.00000004  0.58969008
  -0.00000000  0.16666667  0.52984770
   0.00000000  0.00000003  0.70956984
  -0.00000000  0.16666667  0.64947764
  -0.00000000  0.00000004  0.82868373
  -0.00000000  0.16666667  0.76899819
   0.33336224 -0.00007465  0.23097573
   0.33328743  0.16666727  0.17137692
   0.33341882 -0.00003621  0.35046217
   0.33339467  0.16657733  0.29045086
   0.33339281 -0.00005072  0.47008946
   0.33326766  0.16672765  0.41036942
   0.33326767  0.00006102  0.58963059
   0.33339281  0.16661591  0.52991054
   0.33339467 -0.00008930  0.70954914
   0.33341882  0.16663042  0.64953783
   0.33328743  0.00000064  0.82862308
   0.33336224  0.16659198  0.76902427
  -0.00000000  0.33333337  0.23100181
  -0.00000000  0.50000000  0.17131626
  -0.00000000  0.33333337  0.35052236
  -0.00000000  0.50000000  0.29043016
   0.00000000  0.33333337  0.47015230
   0.00000000  0.50000000  0.41030992
   0.00000000  0.33333337  0.58969008
   0.00000000  0.50000000  0.52984770
  -0.00000000  0.33333337  0.70956983
  -0.00000000  0.50000000  0.64947764
   0.00000000  0.33333337  0.82868374
  -0.00000000  0.50000000  0.76899818
   0.66663776  0.00007472  0.23097573
   0.66671257  0.16666606  0.17137692
   0.66658118  0.00003628  0.35046217
   0.66660533  0.16675600  0.29045086
   0.66660719  0.00005079  0.47008946
   0.66673233  0.16660568  0.41036941
   0.66673233 -0.00006095  0.58963058
   0.66660719  0.16671742  0.52991054
   0.66660533  0.00008937  0.70954914
   0.66658118  0.16670291  0.64953783
   0.66671257 -0.00000057  0.82862308
   0.66663776  0.16674135  0.76902427
   0.33336224  0.33325868  0.23097573
   0.33328743  0.50000060  0.17137692
   0.33341881  0.33329712  0.35046217
   0.33339467  0.49991066  0.29045086
   0.33339281  0.33328261  0.47008946
   0.33326767  0.50006098  0.41036941
   0.33326767  0.33339435  0.58963059
   0.33339281  0.49994924  0.52991054
   0.33339467  0.33324403  0.70954914
   0.33341881  0.49996375  0.64953783
   0.33328743  0.33333398  0.82862308
   0.33336224  0.49992531  0.76902427
   0.00000000  0.66666670  0.23100181
  -0.00000000  0.83333333  0.17131627
  -0.00000000  0.66666670  0.35052236
   0.00000000  0.83333333  0.29043017
   0.00000000  0.66666670  0.47015230
  -0.00000000  0.83333333  0.41030992
  -0.00000000  0.66666670  0.58969009
  -0.00000000  0.83333333  0.52984770
   0.00000000  0.66666670  0.70956983
   0.00000000  0.83333333  0.64947764
  -0.00000000  0.66666670  0.82868374
  -0.00000000  0.83333333  0.76899819
   0.66663776  0.33340805  0.23097573
   0.66671257  0.49999939  0.17137692
   0.66658118  0.33336961  0.35046217
   0.66660533  0.50008934  0.29045086
   0.66660719  0.33338412  0.47008946
   0.66673234  0.49993901  0.41036941
   0.66673233  0.33327238  0.58963059
   0.66660719  0.50005076  0.52991054
   0.66660533  0.33342270  0.70954914
   0.66658118  0.50003625  0.64953783
   0.66671258  0.33333276  0.82862308
   0.66663776  0.50007468  0.76902427
   0.33336224  0.66659202  0.23097573
   0.33328743  0.83333394  0.17137692
   0.33341882  0.66663045  0.35046217
   0.33339467  0.83324400  0.29045086
   0.33339281  0.66661594  0.47008946
   0.33326767  0.83339432  0.41036941
   0.33326767  0.66672768  0.58963059
   0.33339281  0.83328258  0.52991054
   0.33339467  0.66657736  0.70954914
   0.33341882  0.83329709  0.64953783
   0.33328743  0.66666731  0.82862308
   0.33336224  0.83325865  0.76902427
   0.66663776  0.66674139  0.23097573
   0.66671257  0.83333272  0.17137692
   0.66658118  0.66670295  0.35046217
   0.66660533  0.83342267  0.29045086
   0.66660719  0.66671746  0.47008946
   0.66673233  0.83327235  0.41036941
   0.66673233  0.66660572  0.58963059
   0.66660719  0.83338409  0.52991054
   0.66660533  0.66675604  0.70954914
   0.66658119  0.83336958  0.64953783
   0.66671257  0.66666610  0.82862308
   0.66663776  0.83340802  0.76902427
Direct configuration=     4
   0.00000000  0.00000004  0.23120106
  -0.00000000  0.16666666  0.17169755
   0.00000000  0.00000004  0.35058174
   0.00000000  0.16666666  0.29006162
  -0.00000000  0.00000004  0.47023591
   0.00000000  0.16666666  0.41034031
  -0.00000000  0.00000004  0.58965969
  -0.00000000  0.16666667  0.52976409
   0.00000000  0.00000004  0.70993838
  -0.00000000  0.16666667  0.64941826
  -0.00000001  0.00000004  0.82830245
  -0.00000000  0.16666666  0.76879894
   0.33340561 -0.00018668  0.23113584
   0.33321857  0.16666818  0.17184919
   0.33354704 -0.00009058  0.35043126
   0.33348667  0.16644332  0.29011336
   0.33348202 -0.00012685  0.47007880
   0.33316916  0.16681912  0.41048906
   0.33316916  0.00015250  0.58951094
   0.33348202  0.16653977  0.52992120
   0.33348667 -0.00022331  0.70988664
   0.33354704  0.16657605  0.64956874
   0.33321857  0.00000156  0.82815081
   0.33340561  0.16647995  0.76886416
  -0.00000001  0.33333338  0.23120106
  -0.00000000  0.50000000  0.17169755
  -0.00000000  0.33333337  0.35058174
  -0.00000000  0.50000000  0.29006161
   0.00000000  0.33333337  0.47023591
   0.00000000  0.50000000  0.41034031
   0.00000000  0.33333337  0.58965969
   0.00000000  0.49999999  0.52976409
  -0.00000000  0.33333337  0.70993838
  -0.00000000  0.50000000  0.64941826
   0.00000000  0.33333337  0.82830245
  -0.00000000  0.50000000  0.76879893
   0.66659440  0.00018675  0.23113584
   0.66678143  0.16666514  0.17184919
   0.66645296  0.00009065  0.35043126
   0.66651333  0.16689001  0.29011336
   0.66651798  0.00012693  0.47007880
   0.66683084  0.16651421  0.41048906
   0.66683084 -0.00015242  0.58951094
   0.66651798  0.16679356  0.52992120
   0.66651333  0.00022338  0.70988664
   0.66645296  0.16675728  0.64956874
   0.66678143 -0.00000148  0.82815081
   0.66659440  0.16685338  0.76886416
   0.33340561  0.33314666  0.23113584
   0.33321857  0.50000151  0.17184919
   0.33354704  0.33324276  0.35043126
   0.33348667  0.49977666  0.29011336
   0.33348202  0.33320647  0.47007880
   0.33316917  0.50015246  0.41048906
   0.33316916  0.33348583  0.58951094
   0.33348202  0.49987311  0.52992120
   0.33348667  0.33311003  0.70988664
   0.33354704  0.49990938  0.64956874
   0.33321857  0.33333489  0.82815081
   0.33340561  0.49981328  0.76886415
   0.00000000  0.66666670  0.23120106
  -0.00000000  0.83333333  0.17169755
  -0.00000000  0.66666670  0.35058174
   0.00000000  0.83333333  0.29006162
   0.00000000  0.66666670  0.47023591
  -0.00000000  0.83333333  0.41034031
  -0.00000000  0.66666670  0.58965969
  -0.00000000  0.83333333  0.52976409
   0.00000000  0.66666670  0.70993838
   0.00000000  0.83333333  0.64941827
  -0.00000000  0.66666671  0.82830245
  -0.00000000  0.83333333  0.76879894
   0.66659439  0.33352008  0.23113584
   0.66678143  0.49999847  0.17184919
   0.66645296  0.33342399  0.35043126
   0.66651333  0.50022334  0.29011336
   0.66651798  0.33346026  0.47007880
   0.66683084  0.49984754  0.41048906
   0.66683083  0.33318091  0.58951094
   0.66651798  0.50012689  0.52992120
   0.66651333  0.33355671  0.70988664
   0.66645296  0.50009061  0.64956874
   0.66678144  0.33333184  0.82815081
   0.66659439  0.50018671  0.76886415
   0.33340561  0.66647999  0.23113584
   0.33321857  0.83333485  0.17184919
   0.33354704  0.66657609  0.35043126
   0.33348667  0.83310999  0.29011336
   0.33348202  0.66653981  0.47007880
   0.33316916  0.83348579  0.41048906
   0.33316916  0.66681916  0.58951094
   0.33348202  0.83320644  0.52992120
   0.33348667  0.66644336  0.70988664
   0.33354704  0.83324272  0.64956874
   0.33321857  0.66666823  0.82815081
   0.33340561  0.83314662  0.76886416
   0.66659439  0.66685342  0.23113584
   0.66678143  0.83333180  0.17184919
   0.66645296  0.66675732  0.35043126
   0.66651333  0.83355667  0.29011336
   0.66651798  0.66679359  0.47007880
   0.66683084  0.83318087  0.41048906
   0.66683084  0.66651424  0.58951094
   0.66651798  0.83346022  0.52992120
   0.66651333  0.66689005  0.70988664
   0.66645296  0.83342395  0.64956874
   0.66678143  0.66666519  0.82815081
   0.66659439  0.83352004  0.76886416
Direct configuration=     5
   0.00000000  0.00000004  0.23159956
  -0.00000000  0.16666665  0.17246012
   0.00000000  0.00000004  0.35070050
   0.00000000  0.16666666  0.28932452
  -0.00000001  0.00000005  0.47040314
   0.00000000  0.16666666  0.41040110
  -0.00000000  0.00000004  0.58959890
  -0.00000000  0.16666666  0.52959686
   0.00000001  0.00000004  0.71067548
  -0.00000001  0.16666667  0.64929951
  -0.00000001  0.00000006  0.82753988
  -0.00000000  0.16666666  0.76840044
   0.33349233 -0.00041074  0.23145608
   0.33308086  0.16666999  0.17279373
   0.33380349 -0.00019932  0.35036945
   0.33367068  0.16617531  0.28943836
   0.33366044 -0.00027912  0.47005749
   0.33297216  0.16700207  0.41072835
   0.33297216  0.00033545  0.58927166
   0.33366044  0.16638750  0.52994251
   0.33367068 -0.00049132  0.71056164
   0.33380349  0.16646731  0.64963055
   0.33308084  0.00000339  0.82720627
   0.33349234  0.16625589  0.76854392
  -0.00000002  0.33333339  0.23159956
  -0.00000000  0.49999999  0.17246012
  -0.00000001  0.33333337  0.35070049
  -0.00000001  0.50000001  0.28932452
   0.00000000  0.33333337  0.47040314
   0.00000001  0.50000000  0.41040110
   0.00000000  0.33333337  0.58959890
   0.00000001  0.49999999  0.52959686
  -0.00000000  0.33333337  0.71067548
  -0.00000000  0.50000000  0.64929951
   0.00000000  0.33333337  0.82753989
  -0.00000001  0.50000000  0.76840043
   0.66650767  0.00041081  0.23145608
   0.66691915  0.16666331  0.17279373
   0.66619651  0.00019939  0.35036945
   0.66632933  0.16715802  0.28943836
   0.66633955  0.00027920  0.47005749
   0.66702784  0.16633125  0.41072834
   0.66702784 -0.00033537  0.58927165
   0.66633956  0.16694582  0.52994251
   0.66632933  0.00049139  0.71056164
   0.66619651  0.16686602  0.64963055
   0.66691915 -0.00000330  0.82720626
   0.66650767  0.16707743  0.76854392
   0.33349233  0.33292261  0.23145608
   0.33308086  0.50000332  0.17279372
   0.33380348  0.33313402  0.35036945
   0.33367068  0.49950864  0.28943836
   0.33366044  0.33305420  0.47005749
   0.33297216  0.50033540  0.41072834
   0.33297216  0.33366878  0.58927166
   0.33366044  0.49972083  0.52994251
   0.33367068  0.33284202  0.71056164
   0.33380348  0.49980064  0.64963055
   0.33308086  0.33333672  0.82720628
   0.33349234  0.49958922  0.76854392
   0.00000000  0.66666670  0.23159956
  -0.00000001  0.83333332  0.17246012
  -0.00000000  0.66666670  0.35070049
   0.00000000  0.83333333  0.28932452
   0.00000000  0.66666671  0.47040314
  -0.00000000  0.83333333  0.41040110
  -0.00000000  0.66666671  0.58959891
  -0.00000000  0.83333333  0.52959686
   0.00000000  0.66666671  0.71067548
   0.00000000  0.83333333  0.64929951
  -0.00000001  0.66666672  0.82753989
  -0.00000000  0.83333334  0.76840044
   0.66650767  0.33374414  0.23145608
   0.66691915  0.49999663  0.17279373
   0.66619652  0.33353273  0.35036945
   0.66632932  0.50049135  0.28943836
   0.66633956  0.33361253  0.47005749
   0.66702784  0.49966458  0.41072834
   0.66702784  0.33299796  0.58927166
   0.66633956  0.50027915  0.52994251
   0.66632932  0.33382473  0.71056164
   0.66619651  0.50019935  0.64963055
   0.66691916  0.33333002  0.82720627
   0.66650767  0.50041076  0.76854392
   0.33349233  0.66625594  0.23145608
   0.33308086  0.83333666  0.17279373
   0.33380349  0.66646735  0.35036945
   0.33367068  0.83284197  0.28943836
   0.33366045  0.66638754  0.47005749
   0.33297216  0.83366874  0.41072834
   0.33297216  0.66700211  0.58927166
   0.33366044  0.83305417  0.52994251
   0.33367068  0.66617535  0.71056163
   0.33380348  0.83313398  0.64963055
   0.33308084  0.66667006  0.82720627
   0.33349234  0.83292256  0.76854392
   0.66650766  0.66707747  0.23145608
   0.66691915  0.83332997  0.17279373
   0.66619651  0.66686606  0.35036945
   0.66632932  0.83382468  0.28943836
   0.66633956  0.66694587  0.47005749
   0.66702784  0.83299792  0.41072834
   0.66702784  0.66633130  0.58927166
   0.66633956  0.83361249  0.52994251
   0.66632932  0.66715806  0.71056164
   0.66619652  0.83353268  0.64963055
   0.66691914  0.66666338  0.82720627
   0.66650767  0.83374409  0.76854392
Direct configuration=     6
   0.00000001  0.00000004  0.23239656
  -0.00000000  0.16666664  0.17398526
   0.00000001  0.00000004  0.35093801
   0.00000000  0.16666665  0.28785033
  -0.00000001  0.00000006  0.47073758
   0.00000000  0.16666665  0.41052267
  -0.00000001  0.00000005  0.58947733
  -0.00000000  0.16666666  0.52926241
   0.00000002  0.00000004  0.71214968
  -0.00000001  0.16666666  0.64906199
  -0.00000002  0.00000008  0.82601473
  -0.00000000  0.16666665  0.76760344
   0.33366579 -0.00085885  0.23209655
   0.33280543  0.16667362  0.17468281
   0.33431638 -0.00041680  0.35024583
   0.33403869  0.16563928  0.28808836
   0.33401728 -0.00058365  0.47001487
   0.33257815  0.16736797  0.41120692
   0.33257815  0.00070136  0.58879308
   0.33401728  0.16608296  0.52998513
   0.33403869 -0.00102734  0.71191165
   0.33431638  0.16624982  0.64975418
   0.33280540  0.00000705  0.82531719
   0.33366580  0.16580776  0.76790346
  -0.00000003  0.33333341  0.23239656
  -0.00000000  0.49999998  0.17398525
  -0.00000002  0.33333338  0.35093801
  -0.00000002  0.50000001  0.28785032
   0.00000001  0.33333337  0.47073758
   0.00000001  0.49999999  0.41052267
   0.00000001  0.33333338  0.58947732
   0.00000001  0.49999997  0.52926241
  -0.00000000  0.33333338  0.71214967
  -0.00000000  0.50000000  0.64906199
   0.00000001  0.33333337  0.82601476
  -0.00000002  0.50000000  0.76760343
   0.66633422  0.00085892  0.23209654
   0.66719459  0.16665964  0.17468281
   0.66568362  0.00041687  0.35024583
   0.66596132  0.16769403  0.28808836
   0.66598271  0.00058375  0.47001487
   0.66742185  0.16596535  0.41120692
   0.66742184 -0.00070126  0.58879308
   0.66598271  0.16725036  0.52998513
   0.66596132  0.00102741  0.71191164
   0.66568362  0.16708350  0.64975417
   0.66719458 -0.00000693  0.82531718
   0.66633422  0.16752553  0.76790345
   0.33366578  0.33247450  0.23209655
   0.33280543  0.50000694  0.17468279
   0.33431637  0.33291656  0.35024583
   0.33403870  0.49897262  0.28808835
   0.33401729  0.33274966  0.47001487
   0.33257816  0.50070130  0.41120691
   0.33257815  0.33403469  0.58879309
   0.33401729  0.49941629  0.52998513
   0.33403869  0.33230601  0.71191164
   0.33431637  0.49958316  0.64975417
   0.33280543  0.33334037  0.82531721
   0.33366581  0.49914110  0.76790344
   0.00000001  0.66666671  0.23239656
  -0.00000002  0.83333330  0.17398527
  -0.00000000  0.66666671  0.35093801
   0.00000000  0.83333332  0.28785033
   0.00000000  0.66666671  0.47073758
  -0.00000001  0.83333333  0.41052267
  -0.00000000  0.66666671  0.58947733
  -0.00000000  0.83333333  0.52926242
   0.00000000  0.66666671  0.71214967
   0.00000001  0.83333332  0.64906200
  -0.00000002  0.66666674  0.82601475
  -0.00000000  0.83333334  0.76760344
   0.66633421  0.33419226  0.23209655
   0.66719459  0.49999296  0.17468280
   0.66568363  0.33375022  0.35024583
   0.66596130  0.50102737  0.28808836
   0.66598272  0.33391708  0.47001487
   0.66742185  0.49929867  0.41120692
   0.66742184  0.33263207  0.58879309
   0.66598272  0.50058369  0.52998513
   0.66596130  0.33436076  0.71191165
   0.66568361  0.50041683  0.64975418
   0.66719462  0.33332636  0.82531720
   0.66633421  0.50085887  0.76790345
   0.33366579  0.66580783  0.23209655
   0.33280544  0.83334029  0.17468281
   0.33431638  0.66624988  0.35024582
   0.33403869  0.83230595  0.28808835
   0.33401730  0.66608300  0.47001487
   0.33257815  0.83403464  0.41120691
   0.33257815  0.66736802  0.58879309
   0.33401728  0.83274962  0.52998513
   0.33403868  0.66563934  0.71191163
   0.33431637  0.83291650  0.64975418
   0.33280540  0.66667373  0.82531720
   0.33366579  0.83247445  0.76790345
   0.66633419  0.66752559  0.23209655
   0.66719460  0.83332629  0.17468282
   0.66568362  0.66708355  0.35024583
   0.66596131  0.83436069  0.28808836
   0.66598271  0.66725041  0.47001487
   0.66742184  0.83263202  0.41120691
   0.66742185  0.66596540  0.58879309
   0.66598272  0.83391703  0.52998513
   0.66596130  0.66769410  0.71191164
   0.66568363  0.83375015  0.64975417
   0.66719456  0.66665976  0.82531719
   0.66633421  0.83419220  0.76790345
Direct configuration=     7
   0.00000001  0.00000004  0.23209580
  -0.00000000  0.16666664  0.17340971
   0.00000001  0.00000004  0.35084838
   0.00000000  0.16666665  0.28840665
  -0.00000001  0.00000005  0.47061137
   0.00000000  0.16666666  0.41047679
  -0.00000000  0.00000005  0.58952320
  -0.00000000  0.16666666  0.52938862
   0.00000001  0.00000004  0.71159336
  -0.00000001  0.16666666  0.64915162
  -0.00000002  0.00000007  0.82659028
  -0.00000000  0.16666665  0.76790421
   0.33360033 -0.00068974  0.23185485
   0.33290937  0.16667225  0.17396993
   0.33412283 -0.00033473  0.35029248
   0.33389981  0.16584156  0.28859781
   0.33388262 -0.00046873  0.47003095
   0.33272683  0.16722989  0.41102632
   0.33272684  0.00056328  0.58897368
   0.33388262  0.16619788  0.52996904
   0.33389981 -0.00082506  0.71140219
   0.33412283  0.16633190  0.64970753
   0.33290935  0.00000567  0.82603007
   0.33360034  0.16597687  0.76814515
  -0.00000003  0.33333340  0.23209580
  -0.00000000  0.49999998  0.17340971
  -0.00000001  0.33333338  0.35084838
  -0.00000001  0.50000001  0.28840664
   0.00000001  0.33333337  0.47061137
   0.00000001  0.49999999  0.41047679
   0.00000000  0.33333337  0.58952320
   0.00000001  0.49999998  0.52938862
  -0.00000000  0.33333338  0.71159335
  -0.00000000  0.50000000  0.64915162
   0.00000001  0.33333337  0.82659030
  -0.00000001  0.50000000  0.76790420
   0.66639968  0.00068981  0.23185485
   0.66709065  0.16666103  0.17396992
   0.66587717  0.00033480  0.35029248
   0.66610019  0.16749176  0.28859781
   0.66611737  0.00046882  0.47003096
   0.66727316  0.16610343  0.41102632
   0.66727316 -0.00056318  0.58897368
   0.66611738  0.16713543  0.52996904
   0.66610020  0.00082513  0.71140219
   0.66587717  0.16700143  0.64970752
   0.66709064 -0.00000556  0.82603006
   0.66639968  0.16735643  0.76814515
   0.33360033  0.33264360  0.23185485
   0.33290937  0.50000557  0.17396991
   0.33412282  0.33299862  0.35029248
   0.33389982  0.49917490  0.28859781
   0.33388263  0.33286459  0.47003096
   0.33272685  0.50056322  0.41102631
   0.33272684  0.33389661  0.58897369
   0.33388263  0.49953122  0.52996905
   0.33389981  0.33250828  0.71140219
   0.33412282  0.49966523  0.64970752
   0.33290936  0.33333899  0.82603009
   0.33360034  0.49931021  0.76814514
   0.00000001  0.66666671  0.23209580
  -0.00000002  0.83333331  0.17340972
  -0.00000000  0.66666671  0.35084838
   0.00000000  0.83333332  0.28840664
   0.00000000  0.66666671  0.47061137
  -0.00000000  0.83333333  0.41047679
  -0.00000000  0.66666671  0.58952321
  -0.00000000  0.83333333  0.52938863
   0.00000000  0.66666671  0.71159335
   0.00000001  0.83333332  0.64915163
  -0.00000002  0.66666673  0.82659029
  -0.00000000  0.83333334  0.76790420
   0.66639967  0.33402315  0.23185486
   0.66709065  0.49999435  0.17396992
   0.66587718  0.33366814  0.35029248
   0.66610018  0.50082509  0.28859781
   0.66611738  0.33380215  0.47003096
   0.66727316  0.49943676  0.41102632
   0.66727316  0.33277015  0.58897368
   0.66611738  0.50046876  0.52996905
   0.66610018  0.33415847  0.71140219
   0.66587716  0.50033476  0.64970753
   0.66709067  0.33332774  0.82603008
   0.66639967  0.50068977  0.76814514
   0.33360033  0.66597694  0.23185485
   0.33290938  0.83333892  0.17396993
   0.33412283  0.66633195  0.35029248
   0.33389982  0.83250823  0.28859780
   0.33388263  0.66619793  0.47003095
   0.33272684  0.83389656  0.41102631
   0.33272684  0.66722993  0.58897368
   0.33388262  0.83286455  0.52996904
   0.33389981  0.66584161  0.71140218
   0.33412282  0.83299857  0.64970753
   0.33290934  0.66667235  0.82603008
   0.33360033  0.83264355  0.76814515
   0.66639965  0.66735648  0.23185486
   0.66709065  0.83332768  0.17396993
   0.66587717  0.66700148  0.35029248
   0.66610019  0.83415842  0.28859781
   0.66611738  0.66713549  0.47003096
   0.66727316  0.83277010  0.41102631
   0.66727316  0.66610348  0.58897368
   0.66611738  0.83380211  0.52996905
   0.66610018  0.66749181  0.71140219
   0.66587718  0.83366808  0.64970752
   0.66709062  0.66666113  0.82603007
   0.66639967  0.83402310  0.76814514
Direct configuration=     8
   0.00000001  0.00000004  0.23204181
  -0.00000000  0.16666663  0.17396680
   0.00000001  0.00000004  0.35066302
   0.00000001  0.16666665  0.28845125
  -0.00000001  0.00000006  0.47040796
   0.00000000  0.16666665  0.41044677
  -0.00000001  0.00000006  0.58955322
  -0.00000000  0.16666666  0.52959204
   0.00000002  0.00000004  0.71154876
  -0.00000001  0.16666666  0.64933699
  -0.00000003  0.00000010  0.82603319
  -0.00000001  0.16666665  0.76795819
   0.33322415 -0.00051723  0.23198043
   0.33288747  0.16652134  0.17434478
   0.33384635 -0.00026526  0.35021141
   0.33371079  0.16608499  0.28871403
   0.33396224 -0.00049429  0.46995322
   0.33309186  0.16700847  0.41105346
   0.33309186  0.00034187  0.58894654
   0.33396225  0.16617232  0.53004678
   0.33371080 -0.00058162  0.71128597
   0.33384635  0.16640136  0.64978860