<?xml version="1.0" encoding="ISO-8859-1"?>
<modeling>
 <generator>
  <i name="program" type="string">vasp </i>
  <i name="version" type="string">6.2.1  </i>
  <i name="subversion" type="string">16May21 (build Dec 23 2021 00:35:04) complex                          parallel </i>
  <i name="platform" type="string">LinuxIFC </i>
  <i name="date" type="string">2023 03 08 </i>
  <i name="time" type="string">11:51:41 </i>
 </generator>
 <incar>
  <i type="string" name="PREC">Normal</i>
  <i type="string" name="ALGO">Fast</i>
  <i type="int" name="ISPIN">     0</i>
  <i type="int" name="NELM">   150</i>
  <i type="int" name="IBRION">    -1</i>
  <i name="EDIFF">      0.00000001</i>
  <i name="EDIFFG">     -0.01000000</i>
  <i type="int" name="NSW">     0</i>
  <i type="int" name="ISIF">     3</i>
  <i name="ENCUT">    400.00000000</i>
  <i type="string" name="LREAL">AUTO</i>
  <i type="int" name="ISMEAR">     0</i>
  <i name="SIGMA">      0.10000000</i>
  <i name="KSPACING">      0.50000000</i>
  <i type="logical" name="KGAMMA"> T  </i>
  <i type="int" name="NWRITE">     1</i>
  <i type="int" name="LMAXMIX">     6</i>
  <i type="logical" name="LWAVE"> F  </i>
  <i type="logical" name="LCHARG"> F  </i>
  <i type="logical" name="LASPH"> T  </i>
  <i type="string" name="GGA">PE</i>
  <i type="logical" name="LDIPOL"> T  </i>
  <i type="int" name="IDIPOL">     3</i>
  <v name="DIPOL">      0.25730000      0.25730000      0.49880000</v>
 </incar>
 <primitive_cell>
  <structure name="primitive_cell" >
   <crystal>
    <varray name="basis" >
     <v>       4.45737844       0.00000000       0.00000000 </v>
     <v>       0.00000000       4.45737844       0.00000000 </v>
     <v>       0.00000000       0.00000000      27.60082423 </v>
    </varray>
    <i name="volume">    548.37931971 </i>
    <varray name="rec_basis" >
     <v>       0.22434712       0.00000000       0.00000000 </v>
     <v>       0.00000000       0.22434712       0.00000000 </v>
     <v>       0.00000000       0.00000000       0.03623080 </v>
    </varray>
   </crystal>
   <varray name="positions" >
    <v>       0.50000017       0.50000017       0.29813200 </v>
    <v>       0.00000010       0.50000017       0.21738481 </v>
    <v>       0.50000017       0.00000010       0.21738481 </v>
    <v>       0.50000017       0.50000017       0.45962639 </v>
    <v>       0.00000010       0.50000017       0.37887921 </v>
    <v>       0.50000017       0.00000010       0.37887921 </v>
    <v>       0.50000017       0.50000017       0.62112079 </v>
    <v>       0.00000010       0.50000017       0.54037361 </v>
    <v>       0.50000017       0.00000010       0.54037361 </v>
    <v>       0.50000017       0.50000017       0.78261519 </v>
    <v>       0.00000010       0.50000017       0.70186800 </v>
    <v>       0.50000017       0.00000010       0.70186800 </v>
    <v>       0.50000017       0.50000017       0.21738481 </v>
    <v>       0.50000017       0.50000017       0.37887921 </v>
    <v>       0.50000017       0.50000017       0.54037361 </v>
    <v>       0.50000017       0.50000017       0.70186800 </v>
    <v>       0.00000010       0.00000010       0.29813200 </v>
    <v>       0.00000010       0.00000010       0.45962639 </v>
    <v>       0.00000010       0.00000010       0.62112079 </v>
    <v>       0.00000010       0.00000010       0.78261519 </v>
   </varray>
  </structure>
  <varray name="primitive_index" >
   <v type="int" >        1 </v>
   <v type="int" >        2 </v>
   <v type="int" >        3 </v>
   <v type="int" >        4 </v>
   <v type="int" >        5 </v>
   <v type="int" >        6 </v>
   <v type="int" >        7 </v>
   <v type="int" >        8 </v>
   <v type="int" >        9 </v>
   <v type="int" >       10 </v>
   <v type="int" >       11 </v>
   <v type="int" >       12 </v>
   <v type="int" >       13 </v>
   <v type="int" >       14 </v>
   <v type="int" >       15 </v>
   <v type="int" >       16 </v>
   <v type="int" >       17 </v>
   <v type="int" >       18 </v>
   <v type="int" >       19 </v>
   <v type="int" >       20 </v>
  </varray>
 </primitive_cell>
 <kpoints>
  <generation param="Gamma">
   <v type="int" name="divisions">       3        3        1 </v>
   <v name="usershift">      0.00000000       0.00000000       0.00000000 </v>
   <v name="genvec1">      0.33333333       0.00000000       0.00000000 </v>
   <v name="genvec2">      0.00000000       0.33333333       0.00000000 </v>
   <v name="genvec3">      0.00000000       0.00000000       1.00000000 </v>
   <v name="shift">      0.00000000       0.00000000       0.00000000 </v>
  </generation>
  <varray name="kpointlist" >
   <v>       0.00000000       0.00000000       0.00000000 </v>
   <v>       0.33333333       0.00000000       0.00000000 </v>
   <v>       0.33333333       0.33333333       0.00000000 </v>
  </varray>
  <varray name="weights" >
   <v>       0.11111111 </v>
   <v>       0.44444444 </v>
   <v>       0.44444444 </v>
  </varray>
 </kpoints>
 <parameters>
  <separator name="general" >
   <i type="string" name="SYSTEM">unknown system</i>
   <i type="logical" name="LCOMPAT"> F  </i>
  </separator>
  <separator name="electronic" >
   <i type="string" name="PREC">normal</i>
   <i name="ENMAX">    400.00000000</i>
   <i name="ENAUG">    605.39200000</i>
   <i name="EDIFF">      0.00000001</i>
   <i type="int" name="IALGO">    68</i>
   <i type="int" name="IWAVPR">    10</i>
   <i type="int" name="NBANDS">    48</i>
   <i type="int" name="NBANDSLOW">    -1</i>
   <i type="int" name="NBANDSHIGH">    -1</i>
   <i name="NELECT">     64.00000000</i>
   <i type="int" name="TURBO">     0</i>
   <i type="int" name="IRESTART">     0</i>
   <i type="int" name="NREBOOT">     0</i>
   <i type="int" name="NMIN">     0</i>
   <i name="EREF">      0.00000000</i>
   <separator name="electronic smearing" >
    <i type="int" name="ISMEAR">     0</i>
    <i name="SIGMA">      0.10000000</i>
    <i name="KSPACING">      0.50000000</i>
    <i type="logical" name="KGAMMA"> T  </i>
    <i type="logical" name="KBLOWUP"> T  </i>
   </separator>
   <separator name="electronic projectors" >
    <i type="logical" name="LREAL"> T  </i>
    <v name="ROPT">     -0.00050000     -0.00050000     -0.00050000</v>
    <i type="int" name="LMAXPAW">  -100</i>
    <i type="int" name="LMAXMIX">     6</i>
    <i type="logical" name="NLSPLINE"> F  </i>
   </separator>
   <separator name="electronic startup" >
    <i type="int" name="ISTART">     0</i>
    <i type="int" name="ICHARG">     2</i>
    <i type="int" name="INIWAV">     1</i>
   </separator>
   <separator name="electronic spin" >
    <i type="int" name="ISPIN">     1</i>
    <i type="logical" name="LNONCOLLINEAR"> F  </i>
    <v name="MAGMOM">      1.00000000      1.00000000      1.00000000      1.00000000      1.00000000      1.00000000      1.00000000      1.00000000      1.00000000      1.00000000      1.00000000      1.00000000      1.00000000      1.00000000      1.00000000      1.00000000      1.00000000      1.00000000      1.00000000      1.00000000
</v>
    <i name="NUPDOWN">     -1.00000000</i>
    <i type="logical" name="LSORBIT"> F  </i>
    <v name="SAXIS">      0.00000000      0.00000000      1.00000000</v>
    <i type="logical" name="LSPIRAL"> F  </i>
    <v name="QSPIRAL">      0.00000000      0.00000000      0.00000000</v>
    <i type="logical" name="LZEROZ"> F  </i>
   </separator>
   <separator name="electronic exchange-correlation" >
    <i type="logical" name="LASPH"> T  </i>
    <i type="logical" name="LMETAGGA"> F  </i>
   </separator>
   <separator name="electronic convergence" >
    <i type="int" name="NELM">   150</i>
    <i type="int" name="NELMDL">    -5</i>
    <i type="int" name="NELMIN">     2</i>
    <i name="ENINI">    400.00000000</i>
    <separator name="electronic convergence detail" >
     <i type="logical" name="LDIAG"> T  </i>
     <i type="logical" name="LSUBROT"> F  </i>
     <i name="WEIMIN">      0.00000000</i>
     <i name="EBREAK">      0.00000000</i>
     <i name="DEPER">      0.30000000</i>
     <i type="int" name="NRMM">     4</i>
     <i name="TIME">      0.40000000</i>
    </separator>
   </separator>
   <separator name="electronic mixer" >
    <i name="AMIX">      0.40000000</i>
    <i name="BMIX">      1.00000000</i>
    <i name="AMIN">      0.10000000</i>
    <i name="AMIX_MAG">      1.60000000</i>
    <i name="BMIX_MAG">      1.00000000</i>
    <separator name="electronic mixer details" >
     <i type="int" name="IMIX">     4</i>
     <i type="logical" name="MIXFIRST"> F  </i>
     <i type="int" name="MAXMIX">   -45</i>
     <i name="WC">    100.00000000</i>
     <i type="int" name="INIMIX">     1</i>
     <i type="int" name="MIXPRE">     1</i>
     <i type="int" name="MREMOVE">     5</i>
    </separator>
   </separator>
   <separator name="electronic dipolcorrection" >
    <i type="logical" name="LDIPOL"> T  </i>
    <i type="logical" name="LMONO"> F  </i>
    <i type="int" name="IDIPOL">     3</i>
    <i name="EPSILON">      1.00000000</i>
    <v name="DIPOL">      0.25730000      0.25730000      0.49880000</v>
    <i name="EFIELD">      0.00000000</i>
   </separator>
  </separator>
  <separator name="grids" >
   <i type="int" name="NGX">    24</i>
   <i type="int" name="NGY">    24</i>
   <i type="int" name="NGZ">   140</i>
   <i type="int" name="NGXF">    48</i>
   <i type="int" name="NGYF">    48</i>
   <i type="int" name="NGZF">   280</i>
   <i type="logical" name="ADDGRID"> F  </i>
  </separator>
  <separator name="ionic" >
   <i type="int" name="NSW">     0</i>
   <i type="int" name="IBRION">    -1</i>
   <i type="int" name="MDALGO">     0</i>
   <i type="int" name="ISIF">     3</i>
   <i name="PSTRESS">      0.00000000</i>
   <i name="EDIFFG">     -0.01000000</i>
   <i type="int" name="NFREE">     0</i>
   <i name="POTIM">      0.50000000</i>
   <i name="SMASS">     -3.00000000</i>
   <i name="SCALEE">      1.00000000</i>
  </separator>
  <separator name="ionic md" >
   <i name="TEBEG">      0.00010000</i>
   <i name="TEEND">      0.00010000</i>
   <i type="int" name="NBLOCK">     1</i>
   <i type="int" name="KBLOCK">     1</i>
   <i type="int" name="NPACO">   256</i>
   <i name="APACO">     16.00000000</i>
  </separator>
  <separator name="symmetry" >
   <i type="int" name="ISYM">     2</i>
   <i name="SYMPREC">      0.00001000</i>
  </separator>
  <separator name="dos" >
   <i type="int" name="LORBIT">     0</i>
   <v name="RWIGS">     -1.00000000     -1.00000000     -1.00000000</v>
   <i type="int" name="NEDOS">   301</i>
   <i name="EMIN">     10.00000000</i>
   <i name="EMAX">    -10.00000000</i>
   <i name="EFERMI">      0.00000000</i>
  </separator>
  <separator name="writing" >
   <i type="int" name="NWRITE">     1</i>
   <i type="logical" name="LWAVE"> F  </i>
   <i type="logical" name="LDOWNSAMPLE"> F  </i>
   <i type="logical" name="LCHARG"> F  </i>
   <i type="logical" name="LPARD"> F  </i>
   <i type="logical" name="LVTOT"> F  </i>
   <i type="logical" name="LVHAR"> F  </i>
   <i type="logical" name="LELF"> F  </i>
   <i type="logical" name="LOPTICS"> F  </i>
   <v name="STM">      0.00000000      0.00000000      0.00000000      0.00000000      0.00000000      0.00000000      0.00000000</v>
  </separator>
  <separator name="performance" >
   <i type="int" name="NPAR">     8</i>
   <i type="int" name="NSIM">     4</i>
   <i type="int" name="NBLK">    -1</i>
   <i type="logical" name="LPLANE"> T  </i>
   <i type="logical" name="LSCALAPACK"> T  </i>
   <i type="logical" name="LSCAAWARE"> F  </i>
   <i type="logical" name="LSCALU"> F  </i>
   <i type="logical" name="LASYNC"> F  </i>
   <i type="logical" name="LORBITALREAL"> F  </i>
  </separator>
  <separator name="miscellaneous" >
   <i type="int" name="IDIOT">     3</i>
   <i type="int" name="PHON_NSTRUCT">    -1</i>
   <i type="logical" name="LMUSIC"> F  </i>
   <v name="POMASS">     22.99000000     16.00000000     35.45300000</v>
   <v name="DARWINR">      0.00000000      0.00000000      0.00000000</v>
   <v name="DARWINV">      1.00000000      1.00000000      1.00000000</v>
   <i type="logical" name="LCORR"> T  </i>
  </separator>
  <i type="logical" name="GGA_COMPAT"> T  </i>
  <i type="logical" name="LBERRY"> F  </i>
  <i type="int" name="ICORELEVEL">     0</i>
  <i type="logical" name="LDAU"> F  </i>
  <i type="int" name="I_CONSTRAINED_M">     0</i>
  <separator name="electronic exchange-correlation" >
   <i type="string" name="GGA">PE</i>
   <i type="int" name="VOSKOWN">     0</i>
   <i type="logical" name="LHFCALC"> F  </i>
   <i type="string" name="PRECFOCK"></i>
   <i type="logical" name="LSYMGRAD"> F  </i>
   <i type="logical" name="LHFONE"> F  </i>
   <i type="logical" name="LRHFCALC"> F  </i>
   <i type="logical" name="LTHOMAS"> F  </i>
   <i type="logical" name="LMODELHF"> F  </i>
   <i type="logical" name="LFOCKACE"> F  </i>
   <i name="ENCUT4O">     -1.00000000</i>
   <i type="int" name="EXXOEP">     0</i>
   <i type="int" name="FOURORBIT">     0</i>
   <i name="AEXX">      0.00000000</i>
   <i name="HFALPHA">      0.00000000</i>
   <i name="MCALPHA">      0.00000000</i>
   <i name="ALDAX">      1.00000000</i>
   <i name="AGGAX">      1.00000000</i>
   <i name="ALDAC">      1.00000000</i>
   <i name="AGGAC">      1.00000000</i>
   <i type="int" name="NKREDX">     1</i>
   <i type="int" name="NKREDY">     1</i>
   <i type="int" name="NKREDZ">     1</i>
   <i type="logical" name="SHIFTRED"> F  </i>
   <i type="logical" name="ODDONLY"> F  </i>
   <i type="logical" name="EVENONLY"> F  </i>
   <i type="int" name="LMAXFOCK">     0</i>
   <i type="int" name="NMAXFOCKAE">     0</i>
   <i type="logical" name="LFOCKAEDFT"> F  </i>
   <i name="HFSCREEN">      0.00000000</i>
   <i name="HFSCREENC">      0.00000000</i>
   <i type="int" name="NBANDSGWLOW">     0</i>
  </separator>
  <separator name="vdW DFT" >
   <i type="logical" name="LUSE_VDW"> F  </i>
   <i name="Zab_VDW">     -0.84910000</i>
   <i name="PARAM1">      0.12340000</i>
   <i name="PARAM2">      1.00000000</i>
   <i name="PARAM3">      0.00000000</i>
  </separator>
  <separator name="model GW" >
   <i type="int" name="MODEL_GW">     0</i>
   <i name="MODEL_EPS0">     16.45137959</i>
   <i name="MODEL_ALPHA">      1.00000000</i>
  </separator>
  <separator name="linear response parameters" >
   <i type="logical" name="LEPSILON"> F  </i>
   <i type="logical" name="LRPA"> F  </i>
   <i type="logical" name="LNABLA"> F  </i>
   <i type="logical" name="LVEL"> F  </i>
   <i type="int" name="KINTER">     0</i>
   <i name="CSHIFT">      0.10000000</i>
   <i name="OMEGAMAX">     -1.00000000</i>
   <i name="DEG_THRESHOLD">      0.00200000</i>
   <i name="RTIME">     -0.10000000</i>
   <i name="WPLASMAI">      0.00000000</i>
   <v name="DFIELD">      0.00000000      0.00000000      0.00000000</v>
   <v name="WPLASMA">      0.00000000      0.00000000      0.00000000      0.00000000      0.00000000      0.00000000      0.00000000      0.00000000      0.00000000</v>
  </separator>
  <separator name="orbital magnetization" >
   <i type="logical" name="NUCIND"> F  </i>
   <v name="MAGPOS">      0.00000000      0.00000000      0.00000000</v>
   <i type="logical" name="LNICSALL"> T  </i>
   <i type="logical" name="ORBITALMAG"> F  </i>
   <i type="logical" name="LMAGBLOCH"> F  </i>
   <i type="logical" name="LCHIMAG"> F  </i>
   <i type="logical" name="LGAUGE"> T  </i>
   <i type="int" name="MAGATOM">     0</i>
   <v name="MAGDIPOL">      0.00000000      0.00000000      0.00000000</v>
   <v name="AVECCONST">      0.00000000      0.00000000      0.00000000</v>
  </separator>
  <separator name="response functions" >
   <i type="logical" name="LFINITE_TEMPERATURE"> F  </i>
   <i type="logical" name="LADDER"> F  </i>
   <i type="logical" name="LRPAFORCE"> F  </i>
   <i type="logical" name="LFXC"> F  </i>
   <i type="logical" name="LHARTREE"> T  </i>
   <i type="int" name="IBSE">     0</i>
   <v type="int" name="KPOINT">    -1     0     0     0</v>
   <i type="logical" name="LTCTC"> F  </i>
   <i type="logical" name="LTCTE"> F  </i>
   <i type="logical" name="LTETE"> F  </i>
   <i type="logical" name="LTRIPLET"> F  </i>
   <i type="logical" name="LFXCEPS"> F  </i>
   <i type="logical" name="LFXHEG"> F  </i>
   <i type="int" name="NATURALO">     2</i>
   <i type="logical" name="LHOLEGF"> F  </i>
   <i type="logical" name="L2ORDER"> F  </i>
   <i type="logical" name="LDMP1"> F  </i>
   <i type="logical" name="LMP2LT"> F  </i>
   <i type="logical" name="LSMP2LT"> F  </i>
   <i type="logical" name="LGWLF"> F  </i>
   <i name="ENCUTGW">     -2.00000000</i>
   <i name="ENCUTGWSOFT">     -2.00000000</i>
   <i name="ENCUTLF">     -1.00000000</i>
   <i type="logical" name="LESF_SPLINES"> F  </i>
   <i type="int" name="LMAXMP2">    -1</i>
   <i name="SCISSOR">      0.00000000</i>
   <i type="int" name="NOMEGA">     0</i>
   <i type="int" name="NOMEGAR">     0</i>
   <i type="int" name="NBANDSGW">    -1</i>
   <i type="int" name="NBANDSO">    -1</i>
   <i type="int" name="NBANDSV">    -1</i>
   <i type="int" name="NELM">   150</i>
   <i type="int" name="NELMHF">     1</i>
   <i type="int" name="DIM">     3</i>
   <i type="int" name="IESPILON">     4</i>
   <i type="int" name="ANTIRES">     0</i>
   <i name="OMEGAMAX">    -30.00000000</i>
   <i name="OMEGAMIN">    -30.00000000</i>
   <i name="OMEGATL">   -200.00000000</i>
   <i type="int" name="OMEGAGRID">     0</i>
   <i name="CSHIFT">     -0.10000000</i>
   <i type="logical" name="LSELFENERGY"> F  </i>
   <i type="logical" name="LSPECTRAL"> F  </i>
   <i type="logical" name="LSPECTRALGW"> F  </i>
   <i type="logical" name="LSINGLES"> F  </i>
   <i type="logical" name="LFERMIGW"> F  </i>
   <i type="logical" name="ODDONLYGW"> F  </i>
   <i type="logical" name="EVENONLYGW"> F  </i>
   <i type="int" name="NKREDLFX">     1</i>
   <i type="int" name="NKREDLFY">     1</i>
   <i type="int" name="NKREDLFZ">     1</i>
   <i type="int" name="MAXMEM">  2800</i>
   <i type="int" name="TELESCOPE">     0</i>
   <i type="int" name="NTAUPAR">    -1</i>
   <i type="int" name="NOMEGAPAR">    -1</i>
   <i name="DAMP_NEWTON">      0.80000001</i>
   <i name="LAMBDA">      1.00000000</i>
  </separator>
  <separator name="External order field" >
   <i name="OFIELD_KAPPA">      0.00000000</i>
   <v name="OFIELD_K">      0.00000000      0.00000000      0.00000000</v>
   <i name="OFIELD_Q6_NEAR">      0.00000000</i>
   <i name="OFIELD_Q6_FAR">      0.00000000</i>
   <i name="OFIELD_A">      0.00000000</i>
  </separator>
 </parameters>
 <atominfo>
  <atoms>      20 </atoms>
  <types>       3 </types>
  <array name="atoms" >
   <dimension dim="1">ion</dimension>
   <field type="string">element</field>
   <field type="int">atomtype</field>
   <set>
    <rc><c>Na</c><c>   1</c></rc>
    <rc><c>Na</c><c>   1</c></rc>
    <rc><c>Na</c><c>   1</c></rc>
    <rc><c>Na</c><c>   1</c></rc>
    <rc><c>Na</c><c>   1</c></rc>
    <rc><c>Na</c><c>   1</c></rc>
    <rc><c>Na</c><c>   1</c></rc>
    <rc><c>Na</c><c>   1</c></rc>
    <rc><c>Na</c><c>   1</c></rc>
    <rc><c>Na</c><c>   1</c></rc>
    <rc><c>Na</c><c>   1</c></rc>
    <rc><c>Na</c><c>   1</c></rc>
    <rc><c>O </c><c>   2</c></rc>
    <rc><c>O </c><c>   2</c></rc>
    <rc><c>O </c><c>   2</c></rc>
    <rc><c>O </c><c>   2</c></rc>
    <rc><c>Cl</c><c>   3</c></rc>
    <rc><c>Cl</c><c>   3</c></rc>
    <rc><c>Cl</c><c>   3</c></rc>
    <rc><c>Cl</c><c>   3</c></rc>
   </set>
  </array>
  <array name="atomtypes" >
   <dimension dim="1">type</dimension>
   <field type="int">atomspertype</field>
   <field type="string">element</field>
   <field>mass</field>
   <field>valence</field>
   <field type="string">pseudopotential</field>
   <set>
    <rc><c>  12</c><c>Na</c><c>     22.99000000</c><c>      1.00000000</c><c>  PAW_PBE Na 08Apr2002                  </c></rc>
    <rc><c>   4</c><c>O </c><c>     16.00000000</c><c>      6.00000000</c><c>  PAW_PBE O 08Apr2002                   </c></rc>
    <rc><c>   4</c><c>Cl</c><c>     35.45300000</c><c>      7.00000000</c><c>  PAW_PBE Cl 06Sep2000                  </c></rc>
   </set>
  </array>
 </atominfo>
 <structure name="initialpos" >
  <crystal>
   <varray name="basis" >
    <v>       4.45737844       0.00000000       0.00000000 </v>
    <v>       0.00000000       4.45737844       0.00000000 </v>
    <v>       0.00000000       0.00000000      27.60082423 </v>
   </varray>
   <i name="volume">    548.37931971 </i>
   <varray name="rec_basis" >
    <v>       0.22434712       0.00000000       0.00000000 </v>
    <v>       0.00000000       0.22434712       0.00000000 </v>
    <v>       0.00000000       0.00000000       0.03623080 </v>
   </varray>
  </crystal>
  <varray name="positions" >
   <v>       0.50000017       0.50000017       0.29813200 </v>
   <v>       0.00000010       0.50000017       0.21738481 </v>
   <v>       0.50000017       0.00000010       0.21738481 </v>
   <v>       0.50000017       0.50000017       0.45962639 </v>
   <v>       0.00000010       0.50000017       0.37887921 </v>
   <v>       0.50000017       0.00000010       0.37887921 </v>
   <v>       0.50000017       0.50000017       0.62112079 </v>
   <v>       0.00000010       0.50000017       0.54037361 </v>
   <v>       0.50000017       0.00000010       0.54037361 </v>
   <v>       0.50000017       0.50000017       0.78261519 </v>
   <v>       0.00000010       0.50000017       0.70186800 </v>
   <v>       0.50000017       0.00000010       0.70186800 </v>
   <v>       0.50000017       0.50000017       0.21738481 </v>
   <v>       0.50000017       0.50000017       0.37887921 </v>
   <v>       0.50000017       0.50000017       0.54037361 </v>
   <v>       0.50000017       0.50000017       0.70186800 </v>
   <v>       0.00000010       0.00000010       0.29813200 </v>
   <v>       0.00000010       0.00000010       0.45962639 </v>
   <v>       0.00000010       0.00000010       0.62112079 </v>
   <v>       0.00000010       0.00000010       0.78261519 </v>
  </varray>
 </structure>
 <calculation>
  <scstep>
   <time name="dav">    0.13    0.13</time>
   <time name="total">    0.18    0.19</time>
   <dipole>
    <v name="dipole">      0.00000000       0.00000000       0.00116861 </v>
    <i name="Tr[quadrupol]">   -281.07522891 </i>
    <i name="Echarged">      0.00000000 </i>
    <i name="Edipol_quadrupol">      0.00000000 </i>
    <i name="Eion">      0.00000000 </i>
   </dipole>
   <energy>
    <i name="alphaZ">     -0.75760311 </i>
    <i name="ewald">   3293.34603396 </i>
    <i name="hartreedc">  -6405.54854504 </i>
    <i name="XCdc">   -248.75793346 </i>
    <i name="pawpsdc">   3165.81388983 </i>
    <i name="pawaedc">  -2723.36158796 </i>
    <i name="eentropy">     -0.02383903 </i>
    <i name="bandstr">    -10.95931376 </i>
    <i name="atom">   3429.81723989 </i>
    <i name="e_fr_energy">    499.56834131 </i>
    <i name="e_wo_entrp">    499.59218034 </i>
    <i name="e_0_energy">    499.58026082 </i>
   </energy>
  </scstep>
  <scstep>
   <time name="dav">    0.10    0.10</time>
   <time name="total">    0.10    0.10</time>
   <dipole>
    <v name="dipole">      0.00000000       0.00000000       0.00116861 </v>
    <i name="Tr[quadrupol]">   -281.07522891 </i>
    <i name="Echarged">      0.00000000 </i>
    <i name="Edipol_quadrupol">      0.00000000 </i>
    <i name="Eion">      0.00000000 </i>
   </dipole>
   <energy>
    <i name="e_fr_energy">     24.65574097 </i>
    <i name="e_wo_entrp">     24.65574097 </i>
    <i name="e_0_energy">     24.65574097 </i>
   </energy>
  </scstep>
  <scstep>
   <time name="dav">    0.11    0.11</time>
   <time name="total">    0.11    0.11</time>
   <dipole>
    <v name="dipole">      0.00000000       0.00000000       0.00116861 </v>
    <i name="Tr[quadrupol]">   -281.07522891 </i>
    <i name="Echarged">      0.00000000 </i>
    <i name="Edipol_quadrupol">      0.00000000 </i>
    <i name="Eion">      0.00000000 </i>
   </dipole>
   <energy>
    <i name="e_fr_energy">    -88.27988174 </i>
    <i name="e_wo_entrp">    -88.27988174 </i>
    <i name="e_0_energy">    -88.27988174 </i>
   </energy>
  </scstep>
  <scstep>
   <time name="dav">    0.10    0.10</time>
   <time name="total">    0.10    0.10</time>
   <dipole>
    <v name="dipole">      0.00000000       0.00000000       0.00116861 </v>
    <i name="Tr[quadrupol]">   -281.07522891 </i>
    <i name="Echarged">      0.00000000 </i>
    <i name="Edipol_quadrupol">      0.00000000 </i>
    <i name="Eion">      0.00000000 </i>
   </dipole>
   <energy>
    <i name="e_fr_energy">    -92.05477744 </i>
    <i name="e_wo_entrp">    -92.05477744 </i>
    <i name="e_0_energy">    -92.05477744 </i>
   </energy>
  </scstep>
  <scstep>
   <time name="dav">    0.10    0.10</time>
   <time name="total">    0.11    0.11</time>
   <dipole>
    <v name="dipole">      0.00000000       0.00000000       0.00116861 </v>
    <i name="Tr[quadrupol]">   -281.07522891 </i>
    <i name="Echarged">      0.00000000 </i>
    <i name="Edipol_quadrupol">      0.00000000 </i>
    <i name="Eion">      0.00000000 </i>
   </dipole>
   <energy>
    <i name="e_fr_energy">    -92.16730067 </i>
    <i name="e_wo_entrp">    -92.16730067 </i>
    <i name="e_0_energy">    -92.16730067 </i>
   </energy>
  </scstep>
  <scstep>
   <time name="diag">    0.03    0.03</time>
   <time name="diis">    0.02    0.02</time>
   <time name="orth">    0.00    0.00</time>
   <time name="total">    0.11    0.12</time>
   <dipole>
    <v name="dipole">      0.00000000       0.00000000      -0.01938104 </v>
    <i name="Tr[quadrupol]">   -283.38999551 </i>
    <i name="Echarged">      0.00000000 </i>
    <i name="Edipol_quadrupol">      0.00000000 </i>
    <i name="Eion">      0.00000000 </i>
   </dipole>
   <energy>
    <i name="e_fr_energy">    -72.86068311 </i>
    <i name="e_wo_entrp">    -72.86068311 </i>
    <i name="e_0_energy">    -72.86068311 </i>
   </energy>
  </scstep>
  <scstep>
   <time name="diag">    0.03    0.03</time>
   <time name="diis">    0.02    0.02</time>
   <time name="orth">    0.00    0.00</time>
   <time name="total">    0.11    0.11</time>
   <dipole>
    <v name="dipole">      0.00000000       0.00000000      -0.02061300 </v>
    <i name="Tr[quadrupol]">   -284.98159347 </i>
    <i name="Echarged">      0.00000000 </i>
    <i name="Edipol_quadrupol">      0.00000000 </i>
    <i name="Eion">      0.00000000 </i>
   </dipole>
   <energy>
    <i name="e_fr_energy">    -72.47051557 </i>
    <i name="e_wo_entrp">    -72.47051557 </i>
    <i name="e_0_energy">    -72.47051557 </i>
   </energy>
  </scstep>
  <scstep>
   <time name="diag">    0.02    0.03</time>
   <time name="diis">    0.02    0.02</time>
   <time name="orth">    0.00    0.00</time>
   <time name="total">    0.11    0.11</time>
   <dipole>
    <v name="dipole">      0.00000000       0.00000000      -0.03424193 </v>
    <i name="Tr[quadrupol]">   -288.47999337 </i>
    <i name="Echarged">      0.00000000 </i>
    <i name="Edipol_quadrupol">      0.00000000 </i>
    <i name="Eion">      0.00000000 </i>
   </dipole>
   <energy>
    <i name="e_fr_energy">    -71.79728533 </i>
    <i name="e_wo_entrp">    -71.79728533 </i>
    <i name="e_0_energy">    -71.79728533 </i>
   </energy>
  </scstep>
  <scstep>
   <time name="diag">    0.02    0.03</time>
   <time name="diis">    0.02    0.02</time>
   <time name="orth">    0.00    0.00</time>
   <time name="total">    0.11    0.11</time>
   <dipole>
    <v name="dipole">      0.00000000       0.00000000      -0.03607480 </v>
    <i name="Tr[quadrupol]">   -290.13836534 </i>
    <i name="Echarged">      0.00000000 </i>
    <i name="Edipol_quadrupol">      0.00000000 </i>
    <i name="Eion">      0.00000000 </i>
   </dipole>
   <energy>
    <i name="e_fr_energy">    -71.78973988 </i>
    <i name="e_wo_entrp">    -71.78973988 </i>
    <i name="e_0_energy">    -71.78973988 </i>
   </energy>
  </scstep>
  <scstep>
   <time name="diag">    0.02    0.03</time>
   <time name="diis">    0.02    0.02</time>
   <time name="orth">    0.00    0.00</time>
   <time name="total">    0.11    0.11</time>
   <dipole>
    <v name="dipole">      0.00000000       0.00000000      -0.03741741 </v>
    <i name="Tr[quadrupol]">   -291.15877953 </i>
    <i name="Echarged">      0.00000000 </i>
    <i name="Edipol_quadrupol">      0.00000000 </i>
    <i name="Eion">      0.00000000 </i>
   </dipole>
   <energy>
    <i name="e_fr_energy">    -71.79536746 </i>
    <i name="e_wo_entrp">    -71.79536746 </i>
    <i name="e_0_energy">    -71.79536746 </i>
   </energy>
  </scstep>
  <scstep>
   <time name="diag">    0.03    0.03</time>
   <time name="diis">    0.07    0.12</time>
   <time name="orth">    0.05    0.05</time>
   <time name="total">    0.32    0.37</time>
   <dipole>
    <v name="dipole">      0.00000000       0.00000000      -0.03908014 </v>
    <i name="Tr[quadrupol]">   -292.61660502 </i>
    <i name="Echarged">      0.00000000 </i>
    <i name="Edipol_quadrupol">      0.00000000 </i>
    <i name="Eion">      0.00000000 </i>
   </dipole>
   <energy>
    <i name="e_fr_energy">    -71.79274136 </i>
    <i name="e_wo_entrp">    -71.79274136 </i>
    <i name="e_0_energy">    -71.79274136 </i>
   </energy>
  </scstep>
  <scstep>
   <time name="diag">    0.03    0.04</time>
   <time name="diis">    0.03    0.03</time>
   <time name="orth">    0.00    0.01</time>
   <time name="total">    0.12    0.15</time>
   <dipole>
    <v name="dipole">      0.00000000       0.00000000      -0.03998209 </v>
    <i name="Tr[quadrupol]">   -293.38358418 </i>
    <i name="Echarged">      0.00000000 </i>
    <i name="Edipol_quadrupol">      0.00000000 </i>
    <i name="Eion">      0.00000000 </i>
   </dipole>
   <energy>
    <i name="e_fr_energy">    -71.79069799 </i>
    <i name="e_wo_entrp">    -71.79069799 </i>
    <i name="e_0_energy">    -71.79069799 </i>
   </energy>
  </scstep>
  <scstep>
   <time name="diag">    0.03    0.03</time>
   <time name="diis">    0.02    0.02</time>
   <time name="orth">    0.00    0.00</time>
   <time name="total">    0.13    0.13</time>
   <dipole>
    <v name="dipole">      0.00000000       0.00000000      -0.04097254 </v>
    <i name="Tr[quadrupol]">   -294.30525314 </i>
    <i name="Echarged">      0.00000000 </i>
    <i name="Edipol_quadrupol">      0.00000000 </i>
    <i name="Eion">      0.00000000 </i>
   </dipole>
   <energy>
    <i name="e_fr_energy">    -71.78961199 </i>
    <i name="e_wo_entrp">    -71.78961199 </i>
    <i name="e_0_energy">    -71.78961199 </i>
   </energy>
  </scstep>
  <scstep>
   <time name="diag">    0.03    0.03</time>
   <time name="diis">    0.02    0.02</time>
   <time name="orth">    0.00    0.00</time>
   <time name="total">    0.11    0.11</time>
   <dipole>
    <v name="dipole">      0.00000000       0.00000000      -0.04252409 </v>
    <i name="Tr[quadrupol]">   -294.89715240 </i>
    <i name="Echarged">      0.00000000 </i>
    <i name="Edipol_quadrupol">      0.00000000 </i>
    <i name="Eion">      0.00000000 </i>
   </dipole>
   <energy>
    <i name="e_fr_energy">    -71.78959629 </i>
    <i name="e_wo_entrp">    -71.78959629 </i>
    <i name="e_0_energy">    -71.78959629 </i>
   </energy>
  </scstep>
  <scstep>
   <time name="diag">    0.03    0.03</time>
   <time name="diis">    0.02    0.02</time>
   <time name="orth">    0.00    0.00</time>
   <time name="total">    0.11    0.11</time>
   <dipole>
    <v name="dipole">      0.00000000       0.00000000      -0.04441036 </v>
    <i name="Tr[quadrupol]">   -295.41404254 </i>
    <i name="Echarged">      0.00000000 </i>
    <i name="Edipol_quadrupol">      0.00000000 </i>
    <i name="Eion">      0.00000000 </i>
   </dipole>
   <energy>
    <i name="e_fr_energy">    -71.79015604 </i>
    <i name="e_wo_entrp">    -71.79015604 </i>
    <i name="e_0_energy">    -71.79015604 </i>
   </energy>
  </scstep>
  <scstep>
   <time name="diag">    0.02    0.03</time>
   <time name="diis">    0.02    0.02</time>
   <time name="orth">    0.00    0.00</time>
   <time name="total">    0.11    0.11</time>
   <dipole>
    <v name="dipole">      0.00000000       0.00000000      -0.04585603 </v>
    <i name="Tr[quadrupol]">   -295.74748354 </i>
    <i name="Echarged">      0.00000000 </i>
    <i name="Edipol_quadrupol">      0.00000000 </i>
    <i name="Eion">      0.00000000 </i>
   </dipole>
   <energy>
    <i name="e_fr_energy">    -71.79084677 </i>
    <i name="e_wo_entrp">    -71.79084677 </i>
    <i name="e_0_energy">    -71.79084677 </i>
   </energy>
  </scstep>
  <scstep>
   <time name="diag">    0.03    0.03</time>
   <time name="diis">    0.02    0.02</time>
   <time name="orth">    0.00    0.00</time>
   <time name="total">    0.11    0.11</time>
   <dipole>
    <v name="dipole">      0.00000000       0.00000000      -0.04703185 </v>
    <i name="Tr[quadrupol]">   -295.89791445 </i>
    <i name="Echarged">      0.00000000 </i>
    <i name="Edipol_quadrupol">      0.00000000 </i>
    <i name="Eion">      0.00000000 </i>
   </dipole>
   <energy>
    <i name="e_fr_energy">    -71.79165231 </i>
    <i name="e_wo_entrp">    -71.79165231 </i>
    <i name="e_0_energy">    -71.79165231 </i>
   </energy>
  </scstep>
  <scstep>
   <time name="diag">    0.02    0.03</time>
   <time name="diis">    0.02    0.02</time>
   <time name="orth">    0.00    0.00</time>
   <time name="total">    0.11    0.11</time>
   <dipole>
    <v name="dipole">      0.00000000       0.00000000      -0.04775897 </v>
    <i name="Tr[quadrupol]">   -295.94066480 </i>
    <i name="Echarged">      0.00000000 </i>
    <i name="Edipol_quadrupol">      0.00000000 </i>
    <i name="Eion">      0.00000000 </i>
   </dipole>
   <energy>
    <i name="e_fr_energy">    -71.79214189 </i>
    <i name="e_wo_entrp">    -71.79214189 </i>
    <i name="e_0_energy">    -71.79214189 </i>
   </energy>
  </scstep>
  <scstep>
   <time name="diag">    0.03    0.03</time>
   <time name="diis">    0.02    0.02</time>
   <time name="orth">    0.00    0.00</time>
   <time name="total">    0.11    0.11</time>
   <dipole>
    <v name="dipole">      0.00000000       0.00000000      -0.04804306 </v>
    <i name="Tr[quadrupol]">   -295.94918758 </i>
    <i name="Echarged">      0.00000000 </i>
    <i name="Edipol_quadrupol">      0.00000000 </i>
    <i name="Eion">      0.00000000 </i>
   </dipole>
   <energy>
    <i name="e_fr_energy">    -71.79238719 </i>
    <i name="e_wo_entrp">    -71.79238719 </i>
    <i name="e_0_energy">    -71.79238719 </i>
   </energy>
  </scstep>
  <scstep>
   <time name="diag">    0.03    0.03</time>
   <time name="diis">    0.02    0.02</time>
   <time name="orth">    0.00    0.00</time>
   <time name="total">    0.11    0.11</time>
   <dipole>
    <v name="dipole">      0.00000000       0.00000000      -0.04803000 </v>
    <i name="Tr[quadrupol]">   -295.94927150 </i>
    <i name="Echarged">      0.00000000 </i>
    <i name="Edipol_quadrupol">      0.00000000 </i>
    <i name="Eion">      0.00000000 </i>
   </dipole>
   <energy>
    <i name="e_fr_energy">    -71.79242490 </i>
    <i name="e_wo_entrp">    -71.79242490 </i>
    <i name="e_0_energy">    -71.79242490 </i>
   </energy>
  </scstep>
  <scstep>
   <time name="diag">    0.02    0.03</time>
   <time name="diis">    0.02    0.02</time>
   <time name="orth">    0.00    0.00</time>
   <time name="total">    0.11    0.11</time>
   <dipole>
    <v name="dipole">      0.00000000       0.00000000      -0.04795922 </v>
    <i name="Tr[quadrupol]">   -295.94403567 </i>
    <i name="Echarged">      0.00000000 </i>
    <i name="Edipol_quadrupol">      0.00000000 </i>
    <i name="Eion">      0.00000000 </i>
   </dipole>
   <energy>
    <i name="e_fr_energy">    -71.79244176 </i>
    <i name="e_wo_entrp">    -71.79244176 </i>
    <i name="e_0_energy">    -71.79244176 </i>
   </energy>
  </scstep>
  <scstep>
   <time name="diag">    0.03    0.03</time>
   <time name="diis">    0.02    0.02</time>
   <time name="orth">    0.00    0.00</time>
   <time name="total">    0.11    0.11</time>
   <dipole>
    <v name="dipole">      0.00000000       0.00000000      -0.04788812 </v>
    <i name="Tr[quadrupol]">   -295.94448948 </i>
    <i name="Echarged">      0.00000000 </i>
    <i name="Edipol_quadrupol">      0.00000000 </i>
    <i name="Eion">      0.00000000 </i>
   </dipole>
   <energy>
    <i name="e_fr_energy">    -71.79244740 </i>
    <i name="e_wo_entrp">    -71.79244740 </i>
    <i name="e_0_energy">    -71.79244740 </i>
   </energy>
  </scstep>
  <scstep>
   <time name="diag">    0.02    0.03</time>
   <time name="diis">    0.02    0.02</time>
   <time name="orth">    0.00    0.00</time>
   <time name="total">    0.11    0.11</time>
   <dipole>
    <v name="dipole">      0.00000000       0.00000000      -0.04784903 </v>
    <i name="Tr[quadrupol]">   -295.94452516 </i>
    <i name="Echarged">      0.00000000 </i>
    <i name="Edipol_quadrupol">      0.00000000 </i>
    <i name="Eion">      0.00000000 </i>
   </dipole>
   <energy>
    <i name="e_fr_energy">    -71.79244800 </i>
    <i name="e_wo_entrp">    -71.79244800 </i>
    <i name="e_0_energy">    -71.79244800 </i>
   </energy>
  </scstep>
  <scstep>
   <time name="diag">    0.02    0.03</time>
   <time name="diis">    0.02    0.02</time>
   <time name="orth">    0.00    0.00</time>
   <time name="total">    0.10    0.11</time>
   <dipole>
    <v name="dipole">      0.00000000       0.00000000      -0.04779648 </v>
    <i name="Tr[quadrupol]">   -295.94466820 </i>
    <i name="Echarged">      0.00000000 </i>
    <i name="Edipol_quadrupol">      0.00000000 </i>
    <i name="Eion">      0.00000000 </i>
   </dipole>
   <energy>
    <i name="e_fr_energy">    -71.79244828 </i>
    <i name="e_wo_entrp">    -71.79244828 </i>
    <i name="e_0_energy">    -71.79244828 </i>
   </energy>
  </scstep>
  <scstep>
   <time name="diag">    0.03    0.03</time>
   <time name="diis">    0.02    0.02</time>
   <time name="orth">    0.00    0.00</time>
   <time name="total">    0.11    0.11</time>
   <dipole>
    <v name="dipole">      0.00000000       0.00000000      -0.04777271 </v>
    <i name="Tr[quadrupol]">   -295.94487952 </i>
    <i name="Echarged">      0.00000000 </i>
    <i name="Edipol_quadrupol">      0.00000000 </i>
    <i name="Eion">      0.00000000 </i>
   </dipole>
   <energy>
    <i name="e_fr_energy">    -71.79244830 </i>
    <i name="e_wo_entrp">    -71.79244830 </i>
    <i name="e_0_energy">    -71.79244830 </i>
   </energy>
  </scstep>
  <scstep>
   <time name="diag">    0.03    0.03</time>
   <time name="diis">    0.02    0.02</time>
   <time name="orth">    0.00    0.00</time>
   <time name="total">    0.09    0.09</time>
   <dipole>
    <v name="dipole">      0.00000000       0.00000000      -0.04776023 </v>
    <i name="Tr[quadrupol]">   -295.94496368 </i>
    <i name="Echarged">      0.00000000 </i>
    <i name="Edipol_quadrupol">      0.00000000 </i>
    <i name="Eion">      0.00000000 </i>
   </dipole>
   <energy>
    <i name="alphaZ">     -0.65612152 </i>
    <i name="ewald">   3293.34603396 </i>
    <i name="hartreedc">  -6648.35934005 </i>
    <i name="XCdc">   -236.52449295 </i>
    <i name="pawpsdc">   4160.89371355 </i>
    <i name="pawaedc">  -3720.04625900 </i>
    <i name="eentropy">     -0.00000000 </i>
    <i name="bandstr">   -350.26322217 </i>
    <i name="atom">   3429.81723989 </i>
    <i name="e_fr_energy">    -71.79244831 </i>
    <i name="e_wo_entrp">    -71.79244831 </i>
    <i name="e_0_energy">    -71.79244831 </i>
   </energy>
  </scstep>
  <structure>
   <crystal>
    <varray name="basis" >
     <v>       4.45737844       0.00000000       0.00000000 </v>
     <v>       0.00000000       4.45737844       0.00000000 </v>
     <v>       0.00000000       0.00000000      27.60082423 </v>
    </varray>
    <i name="volume">    548.37931971 </i>
    <varray name="rec_basis" >
     <v>       0.22434712       0.00000000       0.00000000 </v>
     <v>       0.00000000       0.22434712       0.00000000 </v>
     <v>       0.00000000       0.00000000       0.03623080 </v>
    </varray>
   </crystal>
   <varray name="positions" >
    <v>       0.50000017       0.50000017       0.29813200 </v>
    <v>       0.00000010       0.50000017       0.21738481 </v>
    <v>       0.50000017       0.00000010       0.21738481 </v>
    <v>       0.50000017       0.50000017       0.45962639 </v>
    <v>       0.00000010       0.50000017       0.37887921 </v>
    <v>       0.50000017       0.00000010       0.37887921 </v>
    <v>       0.50000017       0.50000017       0.62112079 </v>
    <v>       0.00000010       0.50000017       0.54037361 </v>
    <v>       0.50000017       0.00000010       0.54037361 </v>
    <v>       0.50000017       0.50000017       0.78261519 </v>
    <v>       0.00000010       0.50000017       0.70186800 </v>
    <v>       0.50000017       0.00000010       0.70186800 </v>
    <v>       0.50000017       0.50000017       0.21738481 </v>
    <v>       0.50000017       0.50000017       0.37887921 </v>
    <v>       0.50000017       0.50000017       0.54037361 </v>
    <v>       0.50000017       0.50000017       0.70186800 </v>
    <v>       0.00000010       0.00000010       0.29813200 </v>
    <v>       0.00000010       0.00000010       0.45962639 </v>
    <v>       0.00000010       0.00000010       0.62112079 </v>
    <v>       0.00000010       0.00000010       0.78261519 </v>
   </varray>
  </structure>
  <varray name="forces" >
   <v>       0.00000000       0.00000000      -0.01693001 </v>
   <v>       0.00000000       0.00000000      -0.10287284 </v>
   <v>       0.00000000       0.00000000      -0.10287284 </v>
   <v>       0.00000000       0.00000000       0.01580648 </v>
   <v>       0.00000000       0.00000000       0.00686488 </v>
   <v>       0.00000000       0.00000000       0.00686488 </v>
   <v>       0.00000000       0.00000000      -0.01759044 </v>
   <v>       0.00000000       0.00000000      -0.00991918 </v>
   <v>       0.00000000       0.00000000      -0.00991918 </v>
   <v>       0.00000000       0.00000000       0.00891470 </v>
   <v>       0.00000000       0.00000000       0.05452482 </v>
   <v>       0.00000000      -0.00000000       0.05452482 </v>
   <v>       0.00000000       0.00000000       0.10602717 </v>
   <v>       0.00000000      -0.00000000       0.01089540 </v>
   <v>       0.00000000       0.00000000      -0.00348900 </v>
   <v>       0.00000000       0.00000000       0.09847629 </v>
   <v>       0.00000000      -0.00000000      -0.04947702 </v>
   <v>       0.00000000       0.00000000      -0.00501558 </v>
   <v>       0.00000000      -0.00000000      -0.01324061 </v>
   <v>       0.00000000       0.00000000      -0.03157275 </v>
  </varray>
  <varray name="stress" >
   <v>      -5.62540058       0.00000000       0.00000000 </v>
   <v>       0.00000000      -5.62540058       0.00000000 </v>
   <v>       0.00000000       0.00000000      -2.79435384 </v>
  </varray>
  <energy>
   <i name="e_fr_energy">    -71.79244831 </i>
   <i name="e_wo_entrp">    -71.79244831 </i>
   <i name="e_0_energy">    -71.79244831 </i>
  </energy>
  <time name="totalsc">    3.27    3.40</time>
  <eigenvalues>
   <array>
    <dimension dim="1">band</dimension>
    <dimension dim="2">kpoint</dimension>
    <dimension dim="3">spin</dimension>
    <field>eigene</field>
    <field>occ</field>
    <set>
     <set comment="spin 1">
      <set comment="kpoint 1">
       <r>  -15.3968    1.0000 </r>
       <r>  -15.3587    1.0000 </r>
       <r>  -15.3138    1.0000 </r>
       <r>  -15.0958    1.0000 </r>
       <r>  -15.0096    1.0000 </r>
       <r>  -14.9928    1.0000 </r>
       <r>  -14.9238    1.0000 </r>
       <r>  -14.7630    1.0000 </r>
       <r>   -4.1132    1.0000 </r>
       <r>   -3.9259    1.0000 </r>
       <r>   -3.6897    1.0000 </r>
       <r>   -3.5470    1.0000 </r>
       <r>   -3.5470    1.0000 </r>
       <r>   -3.5164    1.0000 </r>
       <r>   -3.5164    1.0000 </r>
       <r>   -3.4837    1.0000 </r>
       <r>   -3.4837    1.0000 </r>
       <r>   -3.3467    1.0000 </r>
       <r>   -3.1922    1.0000 </r>
       <r>   -3.1922    1.0000 </r>
       <r>   -1.2794    1.0000 </r>
       <r>   -1.0756    1.0000 </r>
       <r>   -0.7895    1.0000 </r>
       <r>   -0.6919    1.0000 </r>
       <r>   -0.6919    1.0000 </r>
       <r>   -0.6490    1.0000 </r>
       <r>   -0.6490    1.0000 </r>
       <r>   -0.6038    1.0000 </r>
       <r>   -0.6038    1.0000 </r>
       <r>   -0.5103    1.0000 </r>
       <r>   -0.4438    1.0000 </r>
       <r>   -0.4438    1.0000 </r>
       <r>    1.4937    0.0000 </r>
       <r>    1.6726    0.0000 </r>
       <r>    2.2260    0.0000 </r>
       <r>    2.9582    0.0000 </r>
       <r>    3.3770    0.0000 </r>
       <r>    3.9114    0.0000 </r>
       <r>    4.3585    0.0000 </r>
       <r>    5.0161    0.0000 </r>
       <r>    5.0301    0.0000 </r>
       <r>    5.2185    0.0000 </r>
       <r>    5.2266    0.0000 </r>
       <r>    5.2933    0.0000 </r>
       <r>    5.4760    0.0000 </r>
       <r>    5.6607    0.0000 </r>
       <r>    5.7331    0.0000 </r>
       <r>    7.9490    0.0000 </r>
      </set>
      <set comment="kpoint 2">
       <r>  -15.3206    1.0000 </r>
       <r>  -15.2987    1.0000 </r>
       <r>  -15.2738    1.0000 </r>
       <r>  -15.0423    1.0000 </r>
       <r>  -15.0023    1.0000 </r>
       <r>  -14.9895    1.0000 </r>
       <r>  -14.9302    1.0000 </r>
       <r>  -14.7355    1.0000 </r>
       <r>   -4.1128    1.0000 </r>
       <r>   -4.0377    1.0000 </r>
       <r>   -4.0343    1.0000 </r>
       <r>   -4.0322    1.0000 </r>
       <r>   -3.9104    1.0000 </r>
       <r>   -3.7375    1.0000 </r>
       <r>   -3.6474    1.0000 </r>
       <r>   -3.4857    1.0000 </r>
       <r>   -3.4653    1.0000 </r>
       <r>   -3.4436    1.0000 </r>
       <r>   -3.2852    1.0000 </r>
       <r>   -3.1465    1.0000 </r>
       <r>   -1.1530    1.0000 </r>
       <r>   -1.0640    1.0000 </r>
       <r>   -0.9903    1.0000 </r>
       <r>   -0.9432    1.0000 </r>
       <r>   -0.8457    1.0000 </r>
       <r>   -0.8181    1.0000 </r>
       <r>   -0.7292    1.0000 </r>
       <r>   -0.6872    1.0000 </r>
       <r>   -0.6792    1.0000 </r>
       <r>   -0.6755    1.0000 </r>
       <r>   -0.4556    1.0000 </r>
       <r>   -0.4348    1.0000 </r>
       <r>    2.7740    0.0000 </r>
       <r>    2.8521    0.0000 </r>
       <r>    3.3542    0.0000 </r>
       <r>    3.7482    0.0000 </r>
       <r>    4.0890    0.0000 </r>
       <r>    4.4696    0.0000 </r>
       <r>    4.7170    0.0000 </r>
       <r>    5.0439    0.0000 </r>
       <r>    5.2070    0.0000 </r>
       <r>    5.3393    0.0000 </r>
       <r>    5.3983    0.0000 </r>
       <r>    5.5542    0.0000 </r>
       <r>    6.0307    0.0000 </r>
       <r>    6.5060    0.0000 </r>
       <r>    6.5898    0.0000 </r>
       <r>    6.8962    0.0000 </r>
      </set>
      <set comment="kpoint 3">
       <r>  -15.2800    1.0000 </r>
       <r>  -15.2626    1.0000 </r>
       <r>  -15.2450    1.0000 </r>
       <r>  -15.0020    1.0000 </r>
       <r>  -14.9768    1.0000 </r>
       <r>  -14.9563    1.0000 </r>
       <r>  -14.9161    1.0000 </r>
       <r>  -14.7008    1.0000 </r>
       <r>   -4.0165    1.0000 </r>
       <r>   -4.0134    1.0000 </r>
       <r>   -4.0055    1.0000 </r>
       <r>   -3.9639    1.0000 </r>
       <r>   -3.9480    1.0000 </r>
       <r>   -3.9454    1.0000 </r>
       <r>   -3.8718    1.0000 </r>
       <r>   -3.8056    1.0000 </r>
       <r>   -3.6584    1.0000 </r>
       <r>   -3.6024    1.0000 </r>
       <r>   -3.5728    1.0000 </r>
       <r>   -3.2123    1.0000 </r>
       <r>   -1.0679    1.0000 </r>
       <r>   -1.0655    1.0000 </r>
       <r>   -1.0089    1.0000 </r>
       <r>   -0.9897    1.0000 </r>
       <r>   -0.9831    1.0000 </r>
       <r>   -0.9785    1.0000 </r>
       <r>   -0.9243    1.0000 </r>
       <r>   -0.8848    1.0000 </r>
       <r>   -0.8569    1.0000 </r>
       <r>   -0.7832    1.0000 </r>
       <r>   -0.7620    1.0000 </r>
       <r>   -0.4183    1.0000 </r>
       <r>    3.4335    0.0000 </r>
       <r>    3.5600    0.0000 </r>
       <r>    4.1668    0.0000 </r>
       <r>    4.6934    0.0000 </r>
       <r>    5.0489    0.0000 </r>
       <r>    5.1486    0.0000 </r>
       <r>    5.5414    0.0000 </r>
       <r>    5.5813    0.0000 </r>
       <r>    5.6343    0.0000 </r>
       <r>    5.9899    0.0000 </r>
       <r>    6.1635    0.0000 </r>
       <r>    6.3422    0.0000 </r>
       <r>    6.3922    0.0000 </r>
       <r>    6.4280    0.0000 </r>
       <r>    6.5549    0.0000 </r>
       <r>    6.7085    0.0000 </r>
      </set>
     </set>
    </set>
   </array>
  </eigenvalues>
  <separator name="orbital magnetization" >
   <v name="MAGDIPOLOUT">      0.00000000      0.00000000      0.00000000</v>
  </separator>
  <dos>
   <i name="efermi">      0.04519728 </i>
   <total>
    <array>
     <dimension dim="1">gridpoints</dimension>
     <dimension dim="2">spin</dimension>
     <field>energy</field>
     <field>total</field>
     <field>integrated</field>
     <set>
      <set comment="spin 1">
       <r>   -16.5641     0.0000     0.0000 </r>
       <r>   -16.4785     0.0000     0.0000 </r>
       <r>   -16.3929     0.0000     0.0000 </r>
       <r>   -16.3073     0.0000     0.0000 </r>
       <r>   -16.2217     0.0000     0.0000 </r>
       <r>   -16.1361     0.0000     0.0000 </r>
       <r>   -16.0505     0.0000     0.0000 </r>
       <r>   -15.9649     0.0000     0.0000 </r>
       <r>   -15.8793     0.0000     0.0000 </r>
       <r>   -15.7937     0.0000     0.0000 </r>
       <r>   -15.7081     0.0000     0.0000 </r>
       <r>   -15.6225     0.0022     0.0002 </r>
       <r>   -15.5369     0.0955     0.0084 </r>
       <r>   -15.4513     1.4843     0.1354 </r>
       <r>   -15.3657     9.8353     0.9773 </r>
       <r>   -15.2801    26.1980     3.2199 </r>
       <r>   -15.1945    24.9541     5.3560 </r>
       <r>   -15.1089    12.5092     6.4268 </r>
       <r>   -15.0233    22.9649     8.3927 </r>
       <r>   -14.9377    36.9578    11.5563 </r>
       <r>   -14.8521    23.9124    13.6032 </r>
       <r>   -14.7665    10.7535    14.5237 </r>
       <r>   -14.6809    10.5926    15.4305 </r>
       <r>   -14.5953     5.6795    15.9166 </r>
       <r>   -14.5097     0.9303    15.9963 </r>
       <r>   -14.4241     0.0430    16.0000 </r>
       <r>   -14.3385     0.0005    16.0000 </r>
       <r>   -14.2529     0.0000    16.0000 </r>
       <r>   -14.1673     0.0000    16.0000 </r>
       <r>   -14.0817     0.0000    16.0000 </r>
       <r>   -13.9961     0.0000    16.0000 </r>
       <r>   -13.9105     0.0000    16.0000 </r>
       <r>   -13.8249     0.0000    16.0000 </r>
       <r>   -13.7393     0.0000    16.0000 </r>
       <r>   -13.6537     0.0000    16.0000 </r>
       <r>   -13.5681     0.0000    16.0000 </r>
       <r>   -13.4825     0.0000    16.0000 </r>
       <r>   -13.3969     0.0000    16.0000 </r>
       <r>   -13.3113     0.0000    16.0000 </r>
       <r>   -13.2257     0.0000    16.0000 </r>
       <r>   -13.1401     0.0000    16.0000 </r>
       <r>   -13.0545     0.0000    16.0000 </r>
       <r>   -12.9689     0.0000    16.0000 </r>
       <r>   -12.8833     0.0000    16.0000 </r>
       <r>   -12.7977     0.0000    16.0000 </r>
       <r>   -12.7121     0.0000    16.0000 </r>
       <r>   -12.6265     0.0000    16.0000 </r>
       <r>   -12.5409     0.0000    16.0000 </r>
       <r>   -12.4553     0.0000    16.0000 </r>
       <r>   -12.3697     0.0000    16.0000 </r>
       <r>   -12.2841     0.0000    16.0000 </r>
       <r>   -12.1985     0.0000    16.0000 </r>
       <r>   -12.1129     0.0000    16.0000 </r>
       <r>   -12.0273     0.0000    16.0000 </r>
       <r>   -11.9417     0.0000    16.0000 </r>
       <r>   -11.8561     0.0000    16.0000 </r>
       <r>   -11.7705     0.0000    16.0000 </r>
       <r>   -11.6849     0.0000    16.0000 </r>
       <r>   -11.5993     0.0000    16.0000 </r>
       <r>   -11.5137     0.0000    16.0000 </r>
       <r>   -11.4281     0.0000    16.0000 </r>
       <r>   -11.3425     0.0000    16.0000 </r>
       <r>   -11.2569     0.0000    16.0000 </r>
       <r>   -11.1713     0.0000    16.0000 </r>
       <r>   -11.0857     0.0000    16.0000 </r>
       <r>   -11.0000     0.0000    16.0000 </r>
       <r>   -10.9144     0.0000    16.0000 </r>
       <r>   -10.8288     0.0000    16.0000 </r>
       <r>   -10.7432     0.0000    16.0000 </r>
       <r>   -10.6576     0.0000    16.0000 </r>
       <r>   -10.5720     0.0000    16.0000 </r>
       <r>   -10.4864     0.0000    16.0000 </r>
       <r>   -10.4008     0.0000    16.0000 </r>
       <r>   -10.3152     0.0000    16.0000 </r>
       <r>   -10.2296     0.0000    16.0000 </r>
       <r>   -10.1440     0.0000    16.0000 </r>
       <r>   -10.0584     0.0000    16.0000 </r>
       <r>    -9.9728     0.0000    16.0000 </r>
       <r>    -9.8872     0.0000    16.0000 </r>
       <r>    -9.8016     0.0000    16.0000 </r>
       <r>    -9.7160     0.0000    16.0000 </r>
       <r>    -9.6304     0.0000    16.0000 </r>
       <r>    -9.5448     0.0000    16.0000 </r>
       <r>    -9.4592     0.0000    16.0000 </r>
       <r>    -9.3736     0.0000    16.0000 </r>
       <r>    -9.2880     0.0000    16.0000 </r>
       <r>    -9.2024     0.0000    16.0000 </r>
       <r>    -9.1168     0.0000    16.0000 </r>
       <r>    -9.0312     0.0000    16.0000 </r>
       <r>    -8.9456     0.0000    16.0000 </r>
       <r>    -8.8600     0.0000    16.0000 </r>
       <r>    -8.7744     0.0000    16.0000 </r>
       <r>    -8.6888     0.0000    16.0000 </r>
       <r>    -8.6032     0.0000    16.0000 </r>
       <r>    -8.5176     0.0000    16.0000 </r>
       <r>    -8.4320     0.0000    16.0000 </r>
       <r>    -8.3464     0.0000    16.0000 </r>
       <r>    -8.2608     0.0000    16.0000 </r>
       <r>    -8.1752     0.0000    16.0000 </r>
       <r>    -8.0896     0.0000    16.0000 </r>
       <r>    -8.0040     0.0000    16.0000 </r>
       <r>    -7.9184     0.0000    16.0000 </r>
       <r>    -7.8328     0.0000    16.0000 </r>
       <r>    -7.7472     0.0000    16.0000 </r>
       <r>    -7.6616     0.0000    16.0000 </r>
       <r>    -7.5760     0.0000    16.0000 </r>
       <r>    -7.4904     0.0000    16.0000 </r>
       <r>    -7.4048     0.0000    16.0000 </r>
       <r>    -7.3192     0.0000    16.0000 </r>
       <r>    -7.2336     0.0000    16.0000 </r>
       <r>    -7.1480     0.0000    16.0000 </r>
       <r>    -7.0624     0.0000    16.0000 </r>
       <r>    -6.9768     0.0000    16.0000 </r>
       <r>    -6.8912     0.0000    16.0000 </r>
       <r>    -6.8056     0.0000    16.0000 </r>
       <r>    -6.7200     0.0000    16.0000 </r>
       <r>    -6.6344     0.0000    16.0000 </r>
       <r>    -6.5488     0.0000    16.0000 </r>
       <r>    -6.4632     0.0000    16.0000 </r>
       <r>    -6.3776     0.0000    16.0000 </r>
       <r>    -6.2920     0.0000    16.0000 </r>
       <r>    -6.2064     0.0000    16.0000 </r>
       <r>    -6.1208     0.0000    16.0000 </r>
       <r>    -6.0352     0.0000    16.0000 </r>
       <r>    -5.9496     0.0000    16.0000 </r>
       <r>    -5.8640     0.0000    16.0000 </r>
       <r>    -5.7784     0.0000    16.0000 </r>
       <r>    -5.6928     0.0000    16.0000 </r>
       <r>    -5.6072     0.0000    16.0000 </r>
       <r>    -5.5216     0.0000    16.0000 </r>
       <r>    -5.4360     0.0000    16.0000 </r>
       <r>    -5.3504     0.0000    16.0000 </r>
       <r>    -5.2648     0.0000    16.0000 </r>
       <r>    -5.1792     0.0000    16.0000 </r>
       <r>    -5.0936     0.0000    16.0000 </r>
       <r>    -5.0080     0.0000    16.0000 </r>
       <r>    -4.9224     0.0000    16.0000 </r>
       <r>    -4.8368     0.0000    16.0000 </r>
       <r>    -4.7512     0.0000    16.0000 </r>
       <r>    -4.6656     0.0000    16.0000 </r>
       <r>    -4.5799     0.0000    16.0000 </r>
       <r>    -4.4943     0.0000    16.0000 </r>
       <r>    -4.4087     0.0002    16.0000 </r>
       <r>    -4.3231     0.0198    16.0017 </r>
       <r>    -4.2375     0.5738    16.0508 </r>
       <r>    -4.1519     5.5266    16.5239 </r>
       <r>    -4.0663    22.5680    18.4558 </r>
       <r>    -3.9807    42.6604    22.1075 </r>
       <r>    -3.8951    39.0848    25.4533 </r>
       <r>    -3.8095    22.6745    27.3942 </r>
       <r>    -3.7239    16.2769    28.7875 </r>
       <r>    -3.6383    20.3964    30.5335 </r>
       <r>    -3.5527    25.0336    32.6764 </r>
       <r>    -3.4671    25.6880    34.8753 </r>
       <r>    -3.3815    18.1839    36.4319 </r>
       <r>    -3.2959    10.7273    37.3502 </r>
       <r>    -3.2103    12.6967    38.4370 </r>
       <r>    -3.1247    12.1979    39.4812 </r>
       <r>    -3.0391     5.2356    39.9294 </r>
       <r>    -2.9535     0.7890    39.9969 </r>
       <r>    -2.8679     0.0358    40.0000 </r>
       <r>    -2.7823     0.0004    40.0000 </r>
       <r>    -2.6967     0.0000    40.0000 </r>
       <r>    -2.6111     0.0000    40.0000 </r>
       <r>    -2.5255     0.0000    40.0000 </r>
       <r>    -2.4399     0.0000    40.0000 </r>
       <r>    -2.3543     0.0000    40.0000 </r>
       <r>    -2.2687     0.0000    40.0000 </r>
       <r>    -2.1831     0.0000    40.0000 </r>
       <r>    -2.0975     0.0000    40.0000 </r>
       <r>    -2.0119     0.0000    40.0000 </r>
       <r>    -1.9263     0.0000    40.0000 </r>
       <r>    -1.8407     0.0000    40.0000 </r>
       <r>    -1.7551     0.0000    40.0000 </r>
       <r>    -1.6695     0.0000    40.0000 </r>
       <r>    -1.5839     0.0000    40.0000 </r>
       <r>    -1.4983     0.0025    40.0002 </r>
       <r>    -1.4127     0.0758    40.0067 </r>
       <r>    -1.3271     0.6461    40.0620 </r>
       <r>    -1.2415     2.4358    40.2705 </r>
       <r>    -1.1559     8.3934    40.9890 </r>
       <r>    -1.0703    23.7674    43.0235 </r>
       <r>    -0.9847    41.1668    46.5475 </r>
       <r>    -0.8991    42.7956    50.2108 </r>
       <r>    -0.8135    36.9378    53.3728 </r>
       <r>    -0.7279    35.6144    56.4214 </r>
       <r>    -0.6423    31.2689    59.0981 </r>
       <r>    -0.5567    17.4612    60.5928 </r>
       <r>    -0.4711    14.0956    61.7994 </r>
       <r>    -0.3855    17.0136    63.2558 </r>
       <r>    -0.2999     7.6579    63.9113 </r>
       <r>    -0.2143     1.0003    63.9969 </r>
       <r>    -0.1287     0.0358    64.0000 </r>
       <r>    -0.0431     0.0003    64.0000 </r>
       <r>     0.0425     0.0000    64.0000 </r>
       <r>     0.1281     0.0000    64.0000 </r>
       <r>     0.2137     0.0000    64.0000 </r>
       <r>     0.2993     0.0000    64.0000 </r>
       <r>     0.3849     0.0000    64.0000 </r>
       <r>     0.4705     0.0000    64.0000 </r>
       <r>     0.5561     0.0000    64.0000 </r>
       <r>     0.6417     0.0000    64.0000 </r>
       <r>     0.7273     0.0000    64.0000 </r>
       <r>     0.8129     0.0000    64.0000 </r>
       <r>     0.8985     0.0000    64.0000 </r>
       <r>     0.9841     0.0000    64.0000 </r>
       <r>     1.0697     0.0000    64.0000 </r>
       <r>     1.1553     0.0000    64.0000 </r>
       <r>     1.2409     0.0005    64.0000 </r>
       <r>     1.3265     0.0231    64.0020 </r>
       <r>     1.4121     0.3000    64.0277 </r>
       <r>     1.4977     1.0518    64.1177 </r>
       <r>     1.5833     1.2238    64.2225 </r>
       <r>     1.6689     1.2247    64.3273 </r>
       <r>     1.7545     1.0482    64.4170 </r>
       <r>     1.8402     0.2970    64.4425 </r>
       <r>     1.9258     0.0227    64.4444 </r>
       <r>     2.0114     0.0035    64.4447 </r>
       <r>     2.0970     0.0852    64.4520 </r>
       <r>     2.1826     0.6114    64.5043 </r>
       <r>     2.2682     1.1812    64.6054 </r>
       <r>     2.3538     0.6233    64.6588 </r>
       <r>     2.4394     0.0886    64.6664 </r>
       <r>     2.5250     0.0055    64.6669 </r>
       <r>     2.6106     0.1092    64.6762 </r>
       <r>     2.6962     1.4385    64.7993 </r>
       <r>     2.7818     5.7737    65.2936 </r>
       <r>     2.8674     8.4290    66.0151 </r>
       <r>     2.9530     5.3797    66.4756 </r>
       <r>     3.0386     1.8555    66.6345 </r>
       <r>     3.1242     0.3575    66.6651 </r>
       <r>     3.2098     0.2632    66.6876 </r>
       <r>     3.2954     2.4477    66.8971 </r>
       <r>     3.3810     7.8231    67.5668 </r>
       <r>     3.4666     9.6478    68.3927 </r>
       <r>     3.5522     7.4390    69.0294 </r>
       <r>     3.6378     5.3319    69.4859 </r>
       <r>     3.7234     4.4809    69.8694 </r>
       <r>     3.8090     4.8804    70.2872 </r>
       <r>     3.8946     2.7233    70.5203 </r>
       <r>     3.9802     1.9622    70.6883 </r>
       <r>     4.0658     4.3627    71.0618 </r>
       <r>     4.1514     8.1077    71.7558 </r>
       <r>     4.2370     6.3056    72.2955 </r>
       <r>     4.3226     2.5795    72.5164 </r>
       <r>     4.4082     3.1252    72.7839 </r>
       <r>     4.4938     5.1720    73.2266 </r>
       <r>     4.5794     4.0370    73.5722 </r>
       <r>     4.6650     5.7450    74.0640 </r>
       <r>     4.7506     9.3595    74.8652 </r>
       <r>     4.8362     4.8198    75.2777 </r>
       <r>     4.9218     1.8422    75.4354 </r>
       <r>     5.0074     7.2535    76.0563 </r>
       <r>     5.0930    14.3488    77.2846 </r>
       <r>     5.1786    14.5741    78.5322 </r>
       <r>     5.2642    13.0679    79.6508 </r>
       <r>     5.3498    11.6152    80.6451 </r>
       <r>     5.4354    11.2854    81.6111 </r>
       <r>     5.5210    13.3871    82.7571 </r>
       <r>     5.6066    18.5204    84.3425 </r>
       <r>     5.6922    13.4612    85.4948 </r>
       <r>     5.7778     4.8466    85.9096 </r>
       <r>     5.8634     1.4352    86.0325 </r>
       <r>     5.9490     3.8436    86.3615 </r>
       <r>     6.0346     9.2031    87.1493 </r>
       <r>     6.1202     8.7512    87.8984 </r>
       <r>     6.2058     6.3716    88.4438 </r>
       <r>     6.2914     5.7813    88.9387 </r>
       <r>     6.3770    11.1454    89.8928 </r>
       <r>     6.4626    15.6445    91.2320 </r>
       <r>     6.5482    15.9002    92.5931 </r>
       <r>     6.6338    13.4141    93.7413 </r>
       <r>     6.7194     8.4505    94.4647 </r>
       <r>     6.8050     5.0706    94.8987 </r>
       <r>     6.8906     4.6986    95.3009 </r>
       <r>     6.9762     4.2314    95.6632 </r>
       <r>     7.0618     1.2395    95.7693 </r>
       <r>     7.1474     0.0975    95.7776 </r>
       <r>     7.2330     0.0020    95.7778 </r>
       <r>     7.3186     0.0000    95.7778 </r>
       <r>     7.4042     0.0000    95.7778 </r>
       <r>     7.4898     0.0000    95.7778 </r>
       <r>     7.5754     0.0000    95.7778 </r>
       <r>     7.6610     0.0001    95.7778 </r>
       <r>     7.7466     0.0054    95.7782 </r>
       <r>     7.8322     0.1227    95.7888 </r>
       <r>     7.9178     0.7282    95.8511 </r>
       <r>     8.0034     1.1671    95.9510 </r>
       <r>     8.0890     0.5107    95.9947 </r>
       <r>     8.1746     0.0599    95.9998 </r>
       <r>     8.2602     0.0018    96.0000 </r>
       <r>     8.3459     0.0000    96.0000 </r>
       <r>     8.4315     0.0000    96.0000 </r>
       <r>     8.5171     0.0000    96.0000 </r>
       <r>     8.6027     0.0000    96.0000 </r>
       <r>     8.6883     0.0000    96.0000 </r>
       <r>     8.7739     0.0000    96.0000 </r>
       <r>     8.8595     0.0000    96.0000 </r>
       <r>     8.9451     0.0000    96.0000 </r>
       <r>     9.0307     0.0000    96.0000 </r>
       <r>     9.1163     0.0000    96.0000 </r>
      </set>
     </set>
    </array>
   </total>
  </dos>
 </calculation>
 <structure name="finalpos" >
  <crystal>
   <varray name="basis" >
    <v>       4.45737844       0.00000000       0.00000000 </v>
    <v>       0.00000000       4.45737844       0.00000000 </v>
    <v>       0.00000000       0.00000000      27.60082423 </v>
   </varray>
   <i name="volume">    548.37931971 </i>
   <varray name="rec_basis" >
    <v>       0.22434712       0.00000000       0.00000000 </v>
    <v>       0.00000000       0.22434712       0.00000000 </v>
    <v>       0.00000000       0.00000000       0.03623080 </v>
   </varray>
  </crystal>
  <varray name="positions" >
   <v>       0.50000017       0.50000017       0.29813200 </v>
   <v>       0.00000010       0.50000017       0.21738481 </v>
   <v>       0.50000017       0.00000010       0.21738481 </v>
   <v>       0.50000017       0.50000017       0.45962639 </v>
   <v>       0.00000010       0.50000017       0.37887921 </v>
   <v>       0.50000017       0.00000010       0.37887921 </v>
   <v>       0.50000017       0.50000017       0.62112079 </v>
   <v>       0.00000010       0.50000017       0.54037361 </v>
   <v>       0.50000017       0.00000010       0.54037361 </v>
   <v>       0.50000017       0.50000017       0.78261519 </v>
   <v>       0.00000010       0.50000017       0.70186800 </v>
   <v>       0.50000017       0.00000010       0.70186800 </v>
   <v>       0.50000017       0.50000017       0.21738481 </v>
   <v>       0.50000017       0.50000017       0.37887921 </v>
   <v>       0.50000017       0.50000017       0.54037361 </v>
   <v>       0.50000017       0.50000017       0.70186800 </v>
   <v>       0.00000010       0.00000010       0.29813200 </v>
   <v>       0.00000010       0.00000010       0.45962639 </v>
   <v>       0.00000010       0.00000010       0.62112079 </v>
   <v>       0.00000010       0.00000010       0.78261519 </v>
  </varray>
 </structure>
</modeling>
