  20  20   0   0
  0.2741897E+02  0.4457379E-09  0.4457379E-09  0.2760082E-08  0.5000000E-15
  1.000000000000000E-004
  CAR 
 unknown system                          
      9.11626303    -16.56413542  301      0.04519728      1.00000000
    -16.564  0.0000E+00  0.0000E+00
    -16.479  0.0000E+00  0.0000E+00
    -16.393  0.0000E+00  0.0000E+00
    -16.307  0.0000E+00  0.0000E+00
    -16.222  0.0000E+00  0.0000E+00
    -16.136  0.0000E+00  0.0000E+00
    -16.051  0.0000E+00  0.0000E+00
    -15.965  0.1297E-14  0.1110E-15
    -15.879  0.1180E-10  0.1010E-11
    -15.794  0.2698E-07  0.2310E-08
    -15.708  0.1519E-04  0.1303E-05
    -15.623  0.2224E-02  0.1917E-03
    -15.537  0.9546E-01  0.8363E-02
    -15.451  0.1484E+01  0.1354E+00
    -15.366  0.9835E+01  0.9773E+00
    -15.280  0.2620E+02  0.3220E+01
    -15.195  0.2495E+02  0.5356E+01
    -15.109  0.1251E+02  0.6427E+01
    -15.023  0.2296E+02  0.8393E+01
    -14.938  0.3696E+02  0.1156E+02
    -14.852  0.2391E+02  0.1360E+02
    -14.767  0.1075E+02  0.1452E+02
    -14.681  0.1059E+02  0.1543E+02
    -14.595  0.5679E+01  0.1592E+02
    -14.510  0.9303E+00  0.1600E+02
    -14.424  0.4295E-01  0.1600E+02
    -14.339  0.5290E-03  0.1600E+02
    -14.253  0.1660E-05  0.1600E+02
    -14.167  0.1285E-08  0.1600E+02
    -14.082  0.2398E-12  0.1600E+02
    -13.996  0.0000E+00  0.1600E+02
    -13.910  0.0000E+00  0.1600E+02
    -13.825  0.0000E+00  0.1600E+02
    -13.739  0.0000E+00  0.1600E+02
    -13.654  0.0000E+00  0.1600E+02
    -13.568  0.0000E+00  0.1600E+02
    -13.482  0.0000E+00  0.1600E+02
    -13.397  0.0000E+00  0.1600E+02
    -13.311  0.0000E+00  0.1600E+02
    -13.226  0.0000E+00  0.1600E+02
    -13.140  0.0000E+00  0.1600E+02
    -13.054  0.0000E+00  0.1600E+02
    -12.969  0.0000E+00  0.1600E+02
    -12.883  0.0000E+00  0.1600E+02
    -12.798  0.0000E+00  0.1600E+02
    -12.712  0.0000E+00  0.1600E+02
    -12.626  0.0000E+00  0.1600E+02
    -12.541  0.0000E+00  0.1600E+02
    -12.455  0.0000E+00  0.1600E+02
    -12.370  0.0000E+00  0.1600E+02
    -12.284  0.0000E+00  0.1600E+02
    -12.198  0.0000E+00  0.1600E+02
    -12.113  0.0000E+00  0.1600E+02
    -12.027  0.0000E+00  0.1600E+02
    -11.942  0.0000E+00  0.1600E+02
    -11.856  0.0000E+00  0.1600E+02
    -11.770  0.0000E+00  0.1600E+02
    -11.685  0.0000E+00  0.1600E+02
    -11.599  0.0000E+00  0.1600E+02
    -11.514  0.0000E+00  0.1600E+02
    -11.428  0.0000E+00  0.1600E+02
    -11.342  0.0000E+00  0.1600E+02
    -11.257  0.0000E+00  0.1600E+02
    -11.171  0.0000E+00  0.1600E+02
    -11.086  0.0000E+00  0.1600E+02
    -11.000  0.0000E+00  0.1600E+02
    -10.914  0.0000E+00  0.1600E+02
    -10.829  0.0000E+00  0.1600E+02
    -10.743  0.0000E+00  0.1600E+02
    -10.658  0.0000E+00  0.1600E+02
    -10.572  0.0000E+00  0.1600E+02
    -10.486  0.0000E+00  0.1600E+02
    -10.401  0.0000E+00  0.1600E+02
    -10.315  0.0000E+00  0.1600E+02
    -10.230  0.0000E+00  0.1600E+02
    -10.144  0.0000E+00  0.1600E+02
    -10.058  0.0000E+00  0.1600E+02
     -9.973  0.0000E+00  0.1600E+02
     -9.887  0.0000E+00  0.1600E+02
     -9.802  0.0000E+00  0.1600E+02
     -9.716  0.0000E+00  0.1600E+02
     -9.630  0.0000E+00  0.1600E+02
     -9.545  0.0000E+00  0.1600E+02
     -9.459  0.0000E+00  0.1600E+02
     -9.374  0.0000E+00  0.1600E+02
     -9.288  0.0000E+00  0.1600E+02
     -9.202  0.0000E+00  0.1600E+02
     -9.117  0.0000E+00  0.1600E+02
     -9.031  0.0000E+00  0.1600E+02
     -8.946  0.0000E+00  0.1600E+02
     -8.860  0.0000E+00  0.1600E+02
     -8.774  0.0000E+00  0.1600E+02
     -8.689  0.0000E+00  0.1600E+02
     -8.603  0.0000E+00  0.1600E+02
     -8.518  0.0000E+00  0.1600E+02
     -8.432  0.0000E+00  0.1600E+02
     -8.346  0.0000E+00  0.1600E+02
     -8.261  0.0000E+00  0.1600E+02
     -8.175  0.0000E+00  0.1600E+02
     -8.090  0.0000E+00  0.1600E+02
     -8.004  0.0000E+00  0.1600E+02
     -7.918  0.0000E+00  0.1600E+02
     -7.833  0.0000E+00  0.1600E+02
     -7.747  0.0000E+00  0.1600E+02
     -7.662  0.0000E+00  0.1600E+02
     -7.576  0.0000E+00  0.1600E+02
     -7.490  0.0000E+00  0.1600E+02
     -7.405  0.0000E+00  0.1600E+02
     -7.319  0.0000E+00  0.1600E+02
     -7.234  0.0000E+00  0.1600E+02
     -7.148  0.0000E+00  0.1600E+02
     -7.062  0.0000E+00  0.1600E+02
     -6.977  0.0000E+00  0.1600E+02
     -6.891  0.0000E+00  0.1600E+02
     -6.806  0.0000E+00  0.1600E+02
     -6.720  0.0000E+00  0.1600E+02
     -6.634  0.0000E+00  0.1600E+02
     -6.549  0.0000E+00  0.1600E+02
     -6.463  0.0000E+00  0.1600E+02
     -6.378  0.0000E+00  0.1600E+02
     -6.292  0.0000E+00  0.1600E+02
     -6.206  0.0000E+00  0.1600E+02
     -6.121  0.0000E+00  0.1600E+02
     -6.035  0.0000E+00  0.1600E+02
     -5.950  0.0000E+00  0.1600E+02
     -5.864  0.0000E+00  0.1600E+02
     -5.778  0.0000E+00  0.1600E+02
     -5.693  0.0000E+00  0.1600E+02
     -5.607  0.0000E+00  0.1600E+02
     -5.522  0.0000E+00  0.1600E+02
     -5.436  0.0000E+00  0.1600E+02
     -5.350  0.0000E+00  0.1600E+02
     -5.265  0.0000E+00  0.1600E+02
     -5.179  0.0000E+00  0.1600E+02
     -5.094  0.0000E+00  0.1600E+02
     -5.008  0.0000E+00  0.1600E+02
     -4.922  0.0000E+00  0.1600E+02
     -4.837  0.0000E+00  0.1600E+02
     -4.751  0.0000E+00  0.1600E+02
     -4.666  0.3559E-13  0.1600E+02
     -4.580  0.2579E-09  0.1600E+02
     -4.494  0.4469E-06  0.1600E+02
     -4.409  0.1877E-03  0.1600E+02
     -4.323  0.1981E-01  0.1600E+02
     -4.238  0.5738E+00  0.1605E+02
     -4.152  0.5527E+01  0.1652E+02
     -4.066  0.2257E+02  0.1846E+02
     -3.981  0.4266E+02  0.2211E+02
     -3.895  0.3908E+02  0.2545E+02
     -3.810  0.2267E+02  0.2739E+02
     -3.724  0.1628E+02  0.2879E+02
     -3.638  0.2040E+02  0.3053E+02
     -3.553  0.2503E+02  0.3268E+02
     -3.467  0.2569E+02  0.3488E+02
     -3.382  0.1818E+02  0.3643E+02
     -3.296  0.1073E+02  0.3735E+02
     -3.210  0.1270E+02  0.3844E+02
     -3.125  0.1220E+02  0.3948E+02
     -3.039  0.5236E+01  0.3993E+02
     -2.954  0.7890E+00  0.4000E+02
     -2.868  0.3578E-01  0.4000E+02
     -2.782  0.4400E-03  0.4000E+02
     -2.697  0.1374E-05  0.4000E+02
     -2.611  0.1050E-08  0.4000E+02
     -2.526  0.1920E-12  0.4000E+02
     -2.440  0.0000E+00  0.4000E+02
     -2.354  0.0000E+00  0.4000E+02
     -2.269  0.0000E+00  0.4000E+02
     -2.183  0.0000E+00  0.4000E+02
     -2.098  0.0000E+00  0.4000E+02
     -2.012  0.0000E+00  0.4000E+02
     -1.926  0.0000E+00  0.4000E+02
     -1.841  0.2594E-14  0.4000E+02
     -1.755  0.2237E-10  0.4000E+02
     -1.670  0.4470E-07  0.4000E+02
     -1.584  0.2148E-04  0.4000E+02
     -1.498  0.2530E-02  0.4000E+02
     -1.413  0.7578E-01  0.4001E+02
     -1.327  0.6461E+00  0.4006E+02
     -1.241  0.2436E+01  0.4027E+02
     -1.156  0.8393E+01  0.4099E+02
     -1.070  0.2377E+02  0.4302E+02
     -0.985  0.4117E+02  0.4655E+02
     -0.899  0.4280E+02  0.5021E+02
     -0.813  0.3694E+02  0.5337E+02
     -0.728  0.3561E+02  0.5642E+02
     -0.642  0.3127E+02  0.5910E+02
     -0.557  0.1746E+02  0.6059E+02
     -0.471  0.1410E+02  0.6180E+02
     -0.385  0.1701E+02  0.6326E+02
     -0.300  0.7658E+01  0.6391E+02
     -0.214  0.1000E+01  0.6400E+02
     -0.129  0.3580E-01  0.6400E+02
     -0.043  0.3364E-03  0.6400E+02
      0.043  0.8025E-06  0.6400E+02
      0.128  0.4739E-09  0.6400E+02
      0.214  0.6802E-13  0.6400E+02
      0.299  0.0000E+00  0.6400E+02
      0.385  0.0000E+00  0.6400E+02
      0.471  0.0000E+00  0.6400E+02
      0.556  0.0000E+00  0.6400E+02
      0.642  0.0000E+00  0.6400E+02
      0.727  0.0000E+00  0.6400E+02
      0.813  0.0000E+00  0.6400E+02
      0.899  0.0000E+00  0.6400E+02
      0.984  0.7495E-12  0.6400E+02
      1.070  0.2639E-08  0.6400E+02
      1.155  0.2222E-05  0.6400E+02
      1.241  0.4542E-03  0.6400E+02
      1.327  0.2305E-01  0.6400E+02
      1.412  0.3000E+00  0.6403E+02
      1.498  0.1052E+01  0.6412E+02
      1.583  0.1224E+01  0.6422E+02
      1.669  0.1225E+01  0.6433E+02
      1.755  0.1048E+01  0.6442E+02
      1.840  0.2970E+00  0.6444E+02
      1.926  0.2268E-01  0.6444E+02
      2.011  0.3533E-02  0.6444E+02
      2.097  0.8518E-01  0.6445E+02
      2.183  0.6114E+00  0.6450E+02
      2.268  0.1181E+01  0.6461E+02
      2.354  0.6233E+00  0.6466E+02
      2.439  0.8857E-01  0.6467E+02
      2.525  0.5510E-02  0.6467E+02
      2.611  0.1092E+00  0.6468E+02
      2.696  0.1439E+01  0.6480E+02
      2.782  0.5774E+01  0.6529E+02
      2.867  0.8429E+01  0.6602E+02
      2.953  0.5380E+01  0.6648E+02
      3.039  0.1856E+01  0.6663E+02
      3.124  0.3575E+00  0.6667E+02
      3.210  0.2632E+00  0.6669E+02
      3.295  0.2448E+01  0.6690E+02
      3.381  0.7823E+01  0.6757E+02
      3.467  0.9648E+01  0.6839E+02
      3.552  0.7439E+01  0.6903E+02
      3.638  0.5332E+01  0.6949E+02
      3.723  0.4481E+01  0.6987E+02
      3.809  0.4880E+01  0.7029E+02
      3.895  0.2723E+01  0.7052E+02
      3.980  0.1962E+01  0.7069E+02
      4.066  0.4363E+01  0.7106E+02
      4.151  0.8108E+01  0.7176E+02
      4.237  0.6306E+01  0.7230E+02
      4.323  0.2580E+01  0.7252E+02
      4.408  0.3125E+01  0.7278E+02
      4.494  0.5172E+01  0.7323E+02
      4.579  0.4037E+01  0.7357E+02
      4.665  0.5745E+01  0.7406E+02
      4.751  0.9360E+01  0.7487E+02
      4.836  0.4820E+01  0.7528E+02
      4.922  0.1842E+01  0.7544E+02
      5.007  0.7253E+01  0.7606E+02
      5.093  0.1435E+02  0.7728E+02
      5.179  0.1457E+02  0.7853E+02
      5.264  0.1307E+02  0.7965E+02
      5.350  0.1162E+02  0.8065E+02
      5.435  0.1129E+02  0.8161E+02
      5.521  0.1339E+02  0.8276E+02
      5.607  0.1852E+02  0.8434E+02
      5.692  0.1346E+02  0.8549E+02
      5.778  0.4847E+01  0.8591E+02
      5.863  0.1435E+01  0.8603E+02
      5.949  0.3844E+01  0.8636E+02
      6.035  0.9203E+01  0.8715E+02
      6.120  0.8751E+01  0.8790E+02
      6.206  0.6372E+01  0.8844E+02
      6.291  0.5781E+01  0.8894E+02
      6.377  0.1115E+02  0.8989E+02
      6.463  0.1564E+02  0.9123E+02
      6.548  0.1590E+02  0.9259E+02
      6.634  0.1341E+02  0.9374E+02
      6.719  0.8451E+01  0.9446E+02
      6.805  0.5071E+01  0.9490E+02
      6.891  0.4699E+01  0.9530E+02
      6.976  0.4231E+01  0.9566E+02
      7.062  0.1239E+01  0.9577E+02
      7.147  0.9752E-01  0.9578E+02
      7.233  0.1968E-02  0.9578E+02
      7.319  0.9866E-05  0.9578E+02
      7.404  0.1201E-07  0.9578E+02
      7.490  0.1126E-09  0.9578E+02
      7.575  0.1652E-06  0.9578E+02
      7.661  0.6034E-04  0.9578E+02
      7.747  0.5414E-02  0.9578E+02
      7.832  0.1227E+00  0.9579E+02
      7.918  0.7282E+00  0.9585E+02
      8.003  0.1167E+01  0.9595E+02
      8.089  0.5107E+00  0.9599E+02
      8.175  0.5994E-01  0.9600E+02
      8.260  0.1823E-02  0.9600E+02
      8.346  0.1389E-04  0.9600E+02
      8.431  0.2584E-07  0.9600E+02
      8.517  0.1155E-10  0.9600E+02
      8.603  0.1153E-14  0.9600E+02
      8.688  0.0000E+00  0.9600E+02
      8.774  0.0000E+00  0.9600E+02
      8.859  0.0000E+00  0.9600E+02
      8.945  0.0000E+00  0.9600E+02
      9.031  0.0000E+00  0.9600E+02
      9.116  0.0000E+00  0.9600E+02
