   6   6   0   0
  0.7943629E+02  0.5933265E-09  0.5933265E-09  0.2707776E-08  0.5000000E-15
  1.000000000000000E-004
  CAR 
 unknown system                          
      2.74454271     -5.67836228  301     -0.87883840      1.00000000
     -5.678  0.0000E+00  0.0000E+00
     -5.650  0.0000E+00  0.0000E+00
     -5.622  0.0000E+00  0.0000E+00
     -5.594  0.0000E+00  0.0000E+00
     -5.566  0.0000E+00  0.0000E+00
     -5.538  0.0000E+00  0.0000E+00
     -5.510  0.0000E+00  0.0000E+00
     -5.482  0.0000E+00  0.0000E+00
     -5.454  0.0000E+00  0.0000E+00
     -5.426  0.0000E+00  0.0000E+00
     -5.398  0.0000E+00  0.0000E+00
     -5.370  0.0000E+00  0.0000E+00
     -5.341  0.0000E+00  0.0000E+00
     -5.313  0.0000E+00  0.0000E+00
     -5.285  0.0000E+00  0.0000E+00
     -5.257  0.8787E-15  0.2467E-16
     -5.229  0.2592E-13  0.7525E-15
     -5.201  0.5453E-12  0.1606E-13
     -5.173  0.9921E-11  0.2946E-12
     -5.145  0.1544E-09  0.4630E-11
     -5.117  0.2056E-08  0.6236E-10
     -5.089  0.2342E-07  0.7200E-09
     -5.061  0.2282E-06  0.7128E-08
     -5.033  0.1903E-05  0.6055E-07
     -5.005  0.1357E-04  0.4416E-06
     -4.976  0.8284E-04  0.2767E-05
     -4.948  0.4326E-03  0.1491E-04
     -4.920  0.1933E-02  0.6919E-04
     -4.892  0.7393E-02  0.2767E-03
     -4.864  0.2419E-01  0.9560E-03
     -4.836  0.6775E-01  0.2858E-02
     -4.808  0.1624E+00  0.7418E-02
     -4.780  0.3331E+00  0.1677E-01
     -4.752  0.5849E+00  0.3319E-01
     -4.724  0.8789E+00  0.5787E-01
     -4.696  0.1130E+01  0.8960E-01
     -4.668  0.1244E+01  0.1245E+00
     -4.640  0.1172E+01  0.1574E+00
     -4.611  0.9453E+00  0.1840E+00
     -4.583  0.6525E+00  0.2023E+00
     -4.555  0.3854E+00  0.2131E+00
     -4.527  0.1949E+00  0.2186E+00
     -4.499  0.8433E-01  0.2210E+00
     -4.471  0.3123E-01  0.2218E+00
     -4.443  0.9898E-02  0.2221E+00
     -4.415  0.2687E-02  0.2222E+00
     -4.387  0.6460E-03  0.2222E+00
     -4.359  0.2777E-03  0.2222E+00
     -4.331  0.9060E-03  0.2223E+00
     -4.303  0.4360E-02  0.2224E+00
     -4.275  0.1837E-01  0.2229E+00
     -4.246  0.6638E-01  0.2248E+00
     -4.218  0.2055E+00  0.2305E+00
     -4.190  0.5449E+00  0.2458E+00
     -4.162  0.1238E+01  0.2806E+00
     -4.134  0.2411E+01  0.3483E+00
     -4.106  0.4025E+01  0.4613E+00
     -4.078  0.5757E+01  0.6229E+00
     -4.050  0.7059E+01  0.8211E+00
     -4.022  0.7419E+01  0.1029E+01
     -3.994  0.6684E+01  0.1217E+01
     -3.966  0.5162E+01  0.1362E+01
     -3.938  0.3418E+01  0.1458E+01
     -3.910  0.1940E+01  0.1512E+01
     -3.881  0.9441E+00  0.1539E+01
     -3.853  0.3938E+00  0.1550E+01
     -3.825  0.1409E+00  0.1554E+01
     -3.797  0.4319E-01  0.1555E+01
     -3.769  0.1135E-01  0.1555E+01
     -3.741  0.2557E-02  0.1556E+01
     -3.713  0.4939E-03  0.1556E+01
     -3.685  0.8176E-04  0.1556E+01
     -3.657  0.1160E-04  0.1556E+01
     -3.629  0.1410E-05  0.1556E+01
     -3.601  0.1470E-06  0.1556E+01
     -3.573  0.1312E-07  0.1556E+01
     -3.545  0.1016E-08  0.1556E+01
     -3.516  0.2610E-09  0.1556E+01
     -3.488  0.2673E-08  0.1556E+01
     -3.460  0.3123E-07  0.1556E+01
     -3.432  0.3126E-06  0.1556E+01
     -3.404  0.2677E-05  0.1556E+01
     -3.376  0.1961E-04  0.1556E+01
     -3.348  0.1229E-03  0.1556E+01
     -3.320  0.6592E-03  0.1556E+01
     -3.292  0.3026E-02  0.1556E+01
     -3.264  0.1188E-01  0.1556E+01
     -3.236  0.3994E-01  0.1557E+01
     -3.208  0.1149E+00  0.1560E+01
     -3.180  0.2828E+00  0.1568E+01
     -3.151  0.5957E+00  0.1585E+01
     -3.123  0.1074E+01  0.1615E+01
     -3.095  0.1658E+01  0.1662E+01
     -3.067  0.2190E+01  0.1723E+01
     -3.039  0.2477E+01  0.1793E+01
     -3.011  0.2402E+01  0.1860E+01
     -2.983  0.2009E+01  0.1917E+01
     -2.955  0.1485E+01  0.1958E+01
     -2.927  0.1060E+01  0.1988E+01
     -2.899  0.9049E+00  0.2013E+01
     -2.871  0.1079E+01  0.2044E+01
     -2.843  0.1515E+01  0.2086E+01
     -2.815  0.2038E+01  0.2144E+01
     -2.786  0.2416E+01  0.2211E+01
     -2.758  0.2470E+01  0.2281E+01
     -2.730  0.2164E+01  0.2341E+01
     -2.702  0.1623E+01  0.2387E+01
     -2.674  0.1043E+01  0.2416E+01
     -2.646  0.5764E+00  0.2432E+01
     -2.618  0.2833E+00  0.2440E+01
     -2.590  0.1552E+00  0.2445E+01
     -2.562  0.1728E+00  0.2450E+01
     -2.534  0.3484E+00  0.2459E+01
     -2.506  0.7260E+00  0.2480E+01
     -2.478  0.1336E+01  0.2517E+01
     -2.450  0.2127E+01  0.2577E+01
     -2.422  0.2924E+01  0.2659E+01
     -2.393  0.3480E+01  0.2757E+01
     -2.365  0.3597E+01  0.2858E+01
     -2.337  0.3270E+01  0.2950E+01
     -2.309  0.2717E+01  0.3026E+01
     -2.281  0.2304E+01  0.3091E+01
     -2.253  0.2392E+01  0.3158E+01
     -2.225  0.3175E+01  0.3247E+01
     -2.197  0.4551E+01  0.3375E+01
     -2.169  0.6092E+01  0.3546E+01
     -2.141  0.7182E+01  0.3747E+01
     -2.113  0.7325E+01  0.3953E+01
     -2.085  0.6428E+01  0.4134E+01
     -2.057  0.4848E+01  0.4270E+01
     -2.028  0.3141E+01  0.4358E+01
     -2.000  0.1753E+01  0.4407E+01
     -1.972  0.8617E+00  0.4431E+01
     -1.944  0.4399E+00  0.4444E+01
     -1.916  0.4094E+00  0.4455E+01
     -1.888  0.7634E+00  0.4477E+01
     -1.860  0.1576E+01  0.4521E+01
     -1.832  0.2895E+01  0.4602E+01
     -1.804  0.4584E+01  0.4731E+01
     -1.776  0.6230E+01  0.4906E+01
     -1.748  0.7266E+01  0.5110E+01
     -1.720  0.7273E+01  0.5314E+01
     -1.692  0.6247E+01  0.5489E+01
     -1.663  0.4605E+01  0.5619E+01
     -1.635  0.2914E+01  0.5700E+01
     -1.607  0.1583E+01  0.5745E+01
     -1.579  0.7380E+00  0.5766E+01
     -1.551  0.2954E+00  0.5774E+01
     -1.523  0.1015E+00  0.5777E+01
     -1.495  0.2993E-01  0.5778E+01
     -1.467  0.7575E-02  0.5778E+01
     -1.439  0.1646E-02  0.5778E+01
     -1.411  0.3068E-03  0.5778E+01
     -1.383  0.4907E-04  0.5778E+01
     -1.355  0.6734E-05  0.5778E+01
     -1.327  0.7938E-06  0.5778E+01
     -1.298  0.9373E-07  0.5778E+01
     -1.270  0.1516E-06  0.5778E+01
     -1.242  0.1307E-05  0.5778E+01
     -1.214  0.1010E-04  0.5778E+01
     -1.186  0.6676E-04  0.5778E+01
     -1.158  0.3777E-03  0.5778E+01
     -1.130  0.1829E-02  0.5778E+01
     -1.102  0.7576E-02  0.5778E+01
     -1.074  0.2687E-01  0.5779E+01
     -1.046  0.8158E-01  0.5781E+01
     -1.018  0.2122E+00  0.5787E+01
     -0.990  0.4732E+00  0.5800E+01
     -0.962  0.9066E+00  0.5826E+01
     -0.933  0.1498E+01  0.5868E+01
     -0.905  0.2150E+01  0.5928E+01
     -0.877  0.2717E+01  0.6004E+01
     -0.849  0.3094E+01  0.6091E+01
     -0.821  0.3280E+01  0.6183E+01
     -0.793  0.3346E+01  0.6277E+01
     -0.765  0.3350E+01  0.6371E+01
     -0.737  0.3293E+01  0.6464E+01
     -0.709  0.3170E+01  0.6553E+01
     -0.681  0.3033E+01  0.6638E+01
     -0.653  0.2961E+01  0.6721E+01
     -0.625  0.2959E+01  0.6804E+01
     -0.597  0.2933E+01  0.6887E+01
     -0.568  0.2774E+01  0.6964E+01
     -0.540  0.2488E+01  0.7034E+01
     -0.512  0.2230E+01  0.7097E+01
     -0.484  0.2221E+01  0.7159E+01
     -0.456  0.2648E+01  0.7234E+01
     -0.428  0.3605E+01  0.7335E+01
     -0.400  0.5065E+01  0.7477E+01
     -0.372  0.6844E+01  0.7669E+01
     -0.344  0.8575E+01  0.7910E+01
     -0.316  0.9801E+01  0.8185E+01
     -0.288  0.1018E+02  0.8471E+01
     -0.260  0.9674E+01  0.8742E+01
     -0.232  0.8587E+01  0.8984E+01
     -0.203  0.7346E+01  0.9190E+01
     -0.175  0.6276E+01  0.9366E+01
     -0.147  0.5489E+01  0.9520E+01
     -0.119  0.4943E+01  0.9659E+01
     -0.091  0.4591E+01  0.9788E+01
     -0.063  0.4483E+01  0.9914E+01
     -0.035  0.4735E+01  0.1005E+02
     -0.007  0.5367E+01  0.1020E+02
      0.021  0.6168E+01  0.1037E+02
      0.049  0.6748E+01  0.1056E+02
      0.077  0.6817E+01  0.1075E+02
      0.105  0.6423E+01  0.1093E+02
      0.133  0.5921E+01  0.1110E+02
      0.162  0.5649E+01  0.1126E+02
      0.190  0.5632E+01  0.1141E+02
      0.218  0.5588E+01  0.1157E+02
      0.246  0.5224E+01  0.1172E+02
      0.274  0.4528E+01  0.1185E+02
      0.302  0.3789E+01  0.1195E+02
      0.330  0.3361E+01  0.1205E+02
      0.358  0.3382E+01  0.1214E+02
      0.386  0.3690E+01  0.1224E+02
      0.414  0.3961E+01  0.1236E+02
      0.442  0.3965E+01  0.1247E+02
      0.470  0.3713E+01  0.1257E+02
      0.498  0.3402E+01  0.1267E+02
      0.527  0.3220E+01  0.1276E+02
      0.555  0.3193E+01  0.1285E+02
      0.583  0.3207E+01  0.1294E+02
      0.611  0.3142E+01  0.1303E+02
      0.639  0.2975E+01  0.1311E+02
      0.667  0.2768E+01  0.1319E+02
      0.695  0.2577E+01  0.1326E+02
      0.723  0.2404E+01  0.1333E+02
      0.751  0.2204E+01  0.1339E+02
      0.779  0.1939E+01  0.1344E+02
      0.807  0.1624E+01  0.1349E+02
      0.835  0.1347E+01  0.1353E+02
      0.863  0.1231E+01  0.1356E+02
      0.892  0.1367E+01  0.1360E+02
      0.920  0.1735E+01  0.1365E+02
      0.948  0.2180E+01  0.1371E+02
      0.976  0.2476E+01  0.1378E+02
      1.004  0.2450E+01  0.1385E+02
      1.032  0.2087E+01  0.1391E+02
      1.060  0.1524E+01  0.1395E+02
      1.088  0.9533E+00  0.1398E+02
      1.116  0.5104E+00  0.1399E+02
      1.144  0.2339E+00  0.1400E+02
      1.172  0.9178E-01  0.1400E+02
      1.200  0.3099E-01  0.1400E+02
      1.228  0.9857E-02  0.1400E+02
      1.256  0.6641E-02  0.1400E+02
      1.285  0.1739E-01  0.1400E+02
      1.313  0.5522E-01  0.1400E+02
      1.341  0.1546E+00  0.1401E+02
      1.369  0.3750E+00  0.1402E+02
      1.397  0.7906E+00  0.1404E+02
      1.425  0.1462E+01  0.1408E+02
      1.453  0.2395E+01  0.1415E+02
      1.481  0.3522E+01  0.1425E+02
      1.509  0.4705E+01  0.1438E+02
      1.537  0.5759E+01  0.1454E+02
      1.565  0.6483E+01  0.1472E+02
      1.593  0.6733E+01  0.1491E+02
      1.621  0.6509E+01  0.1509E+02
      1.650  0.5980E+01  0.1526E+02
      1.678  0.5388E+01  0.1541E+02
      1.706  0.4869E+01  0.1555E+02
      1.734  0.4381E+01  0.1567E+02
      1.762  0.3789E+01  0.1578E+02
      1.790  0.3025E+01  0.1586E+02
      1.818  0.2164E+01  0.1592E+02
      1.846  0.1361E+01  0.1596E+02
      1.874  0.7450E+00  0.1598E+02
      1.902  0.3529E+00  0.1599E+02
      1.930  0.1442E+00  0.1600E+02
      1.958  0.5068E-01  0.1600E+02
      1.986  0.1531E-01  0.1600E+02
      2.015  0.3968E-02  0.1600E+02
      2.043  0.8821E-03  0.1600E+02
      2.071  0.1681E-03  0.1600E+02
      2.099  0.2744E-04  0.1600E+02
      2.127  0.3836E-05  0.1600E+02
      2.155  0.4592E-06  0.1600E+02
      2.183  0.4705E-07  0.1600E+02
      2.211  0.4126E-08  0.1600E+02
      2.239  0.3096E-09  0.1600E+02
      2.267  0.1988E-10  0.1600E+02
      2.295  0.1093E-11  0.1600E+02
      2.323  0.5097E-13  0.1600E+02
      2.351  0.1757E-14  0.1600E+02
      2.380  0.0000E+00  0.1600E+02
      2.408  0.0000E+00  0.1600E+02
      2.436  0.0000E+00  0.1600E+02
      2.464  0.0000E+00  0.1600E+02
      2.492  0.0000E+00  0.1600E+02
      2.520  0.0000E+00  0.1600E+02
      2.548  0.0000E+00  0.1600E+02
      2.576  0.0000E+00  0.1600E+02
      2.604  0.0000E+00  0.1600E+02
      2.632  0.0000E+00  0.1600E+02
      2.660  0.0000E+00  0.1600E+02
      2.688  0.0000E+00  0.1600E+02
      2.716  0.0000E+00  0.1600E+02
      2.745  0.0000E+00  0.1600E+02
