    6    6    1    1
  0.7943629E+02  0.5933265E-09  0.5933265E-09  0.2707776E-08  0.5000000E-15
  1.000000000000000E-004
  CAR 
 unknown system                          
      6      4      8
 
  0.0000000E+00  0.0000000E+00  0.0000000E+00  0.1111111E+00
    1       -4.678362   1.000000
    2       -2.359364   1.000000
    3       -0.434010   0.000000
    4        0.054711   0.000000
    5        0.392410   0.000000
    6        0.679671   0.000000
    7        0.766954   0.000000
    8        1.691691   0.000000
 
  0.3333333E+00 -0.1387779E-16  0.4440892E-15  0.4444444E+00
    1       -4.045840   1.000000
    2       -2.129038   1.000000
    3       -1.754045   1.000000
    4       -0.337936   0.000000
    5       -0.284464   0.000000
    6        0.047247   0.000000
    7        0.213116   0.000000
    8        1.586621   0.000000
 
  0.3333333E+00  0.3333333E+00  0.6661338E-15  0.2222222E+00
    1       -4.030853   1.000000
    2       -2.152089   1.000000
    3       -1.734292   1.000000
    4       -0.873643   0.470717
    5       -0.100941   0.000000
    6        0.417693   0.000000
    7        0.569308   0.000000
    8        1.495752   0.000000
 
 -0.3333333E+00  0.3333333E+00 -0.3356111E-15  0.2222222E+00
    1       -3.045129   1.000000
    2       -2.782187   1.000000
    3       -2.401408   1.000000
    4       -0.745056   0.029248
    5       -0.597792   0.000035
    6       -0.187871   0.000000
    7        0.975340   0.000000
    8        1.744543   0.000000
