<?xml version="1.0" encoding="ISO-8859-1"?>
<modeling>
 <generator>
  <i name="program" type="string">vasp </i>
  <i name="version" type="string">6.2.1  </i>
  <i name="subversion" type="string">16May21 (build Dec 23 2021 00:35:04) complex                          parallel </i>
  <i name="platform" type="string">LinuxIFC </i>
  <i name="date" type="string">2023 03 08 </i>
  <i name="time" type="string">11:56:14 </i>
 </generator>
 <incar>
  <i type="string" name="PREC">Normal</i>
  <i type="string" name="ALGO">Fast</i>
  <i type="int" name="ISPIN">     0</i>
  <i type="int" name="NELM">   150</i>
  <i type="int" name="IBRION">    -1</i>
  <i name="EDIFF">      0.00000001</i>
  <i name="EDIFFG">     -0.01000000</i>
  <i type="int" name="NSW">     0</i>
  <i type="int" name="ISIF">     3</i>
  <i name="ENCUT">    400.00000000</i>
  <i type="string" name="LREAL">AUTO</i>
  <i type="int" name="ISMEAR">     0</i>
  <i name="SIGMA">      0.10000000</i>
  <i name="KSPACING">      0.50000000</i>
  <i type="logical" name="KGAMMA"> T  </i>
  <i type="int" name="NWRITE">     1</i>
  <i type="int" name="LMAXMIX">     6</i>
  <i type="logical" name="LWAVE"> F  </i>
  <i type="logical" name="LCHARG"> F  </i>
  <i type="logical" name="LASPH"> T  </i>
  <i type="string" name="GGA">PE</i>
  <i type="logical" name="LDIPOL"> T  </i>
  <i type="int" name="IDIPOL">     3</i>
  <v name="DIPOL">      0.25000000      0.25000000      0.50000000</v>
 </incar>
 <primitive_cell>
  <structure name="primitive_cell" >
   <crystal>
    <varray name="basis" >
     <v>       5.73109405       1.53564202       0.00000000 </v>
     <v>       1.53564202       5.73109405       0.00000000 </v>
     <v>     -15.63334949     -15.63334949      15.63334949 </v>
    </varray>
    <i name="volume">    476.61771760 </i>
    <varray name="rec_basis" >
     <v>       0.18798335      -0.05036999       0.13761336 </v>
     <v>      -0.05036999       0.18798335       0.13761336 </v>
     <v>       0.00000000       0.00000000       0.06396582 </v>
    </varray>
   </crystal>
   <varray name="positions" >
    <v>       0.50000095       0.50000095       0.38379491 </v>
    <v>       0.00000010       0.00000010       0.46126497 </v>
    <v>       0.50000095       0.50000095       0.46126497 </v>
    <v>       0.00000010       0.00000010       0.53873503 </v>
    <v>       0.50000095       0.50000095       0.53873503 </v>
    <v>       0.00000010       0.00000010       0.61620509 </v>
   </varray>
  </structure>
  <varray name="primitive_index" >
   <v type="int" >        1 </v>
   <v type="int" >        2 </v>
   <v type="int" >        3 </v>
   <v type="int" >        4 </v>
   <v type="int" >        5 </v>
   <v type="int" >        6 </v>
  </varray>
 </primitive_cell>
 <kpoints>
  <generation param="Gamma">
   <v type="int" name="divisions">       3        3        1 </v>
   <v name="usershift">      0.00000000       0.00000000       0.00000000 </v>
   <v name="genvec1">      0.33333333      -0.00000000       0.00000000 </v>
   <v name="genvec2">      0.00000000       0.33333333       0.00000000 </v>
   <v name="genvec3">      0.00000000       0.00000000       1.00000000 </v>
   <v name="shift">      0.00000000       0.00000000       0.00000000 </v>
  </generation>
  <varray name="kpointlist" >
   <v>       0.00000000       0.00000000       0.00000000 </v>
   <v>       0.33333333      -0.00000000       0.00000000 </v>
   <v>       0.33333333       0.33333333       0.00000000 </v>
   <v>      -0.33333333       0.33333333      -0.00000000 </v>
  </varray>
  <varray name="weights" >
   <v>       0.11111111 </v>
   <v>       0.44444444 </v>
   <v>       0.22222222 </v>
   <v>       0.22222222 </v>
  </varray>
 </kpoints>
 <parameters>
  <separator name="general" >
   <i type="string" name="SYSTEM">unknown system</i>
   <i type="logical" name="LCOMPAT"> F  </i>
  </separator>
  <separator name="electronic" >
   <i type="string" name="PREC">normal</i>
   <i name="ENMAX">    400.00000000</i>
   <i name="ENAUG">    250.69500000</i>
   <i name="EDIFF">      0.00000001</i>
   <i type="int" name="IALGO">    68</i>
   <i type="int" name="IWAVPR">    10</i>
   <i type="int" name="NBANDS">     8</i>
   <i type="int" name="NBANDSLOW">    -1</i>
   <i type="int" name="NBANDSHIGH">    -1</i>
   <i name="NELECT">      6.00000000</i>
   <i type="int" name="TURBO">     0</i>
   <i type="int" name="IRESTART">     0</i>
   <i type="int" name="NREBOOT">     0</i>
   <i type="int" name="NMIN">     0</i>
   <i name="EREF">      0.00000000</i>
   <separator name="electronic smearing" >
    <i type="int" name="ISMEAR">     0</i>
    <i name="SIGMA">      0.10000000</i>
    <i name="KSPACING">      0.50000000</i>
    <i type="logical" name="KGAMMA"> T  </i>
    <i type="logical" name="KBLOWUP"> T  </i>
   </separator>
   <separator name="electronic projectors" >
    <i type="logical" name="LREAL"> T  </i>
    <v name="ROPT">     -0.00050000</v>
    <i type="int" name="LMAXPAW">  -100</i>
    <i type="int" name="LMAXMIX">     6</i>
    <i type="logical" name="NLSPLINE"> F  </i>
   </separator>
   <separator name="electronic startup" >
    <i type="int" name="ISTART">     0</i>
    <i type="int" name="ICHARG">     2</i>
    <i type="int" name="INIWAV">     1</i>
   </separator>
   <separator name="electronic spin" >
    <i type="int" name="ISPIN">     1</i>
    <i type="logical" name="LNONCOLLINEAR"> F  </i>
    <v name="MAGMOM">      1.00000000      1.00000000      1.00000000      1.00000000      1.00000000      1.00000000</v>
    <i name="NUPDOWN">     -1.00000000</i>
    <i type="logical" name="LSORBIT"> F  </i>
    <v name="SAXIS">      0.00000000      0.00000000      1.00000000</v>
    <i type="logical" name="LSPIRAL"> F  </i>
    <v name="QSPIRAL">      0.00000000      0.00000000      0.00000000</v>
    <i type="logical" name="LZEROZ"> F  </i>
   </separator>
   <separator name="electronic exchange-correlation" >
    <i type="logical" name="LASPH"> T  </i>
    <i type="logical" name="LMETAGGA"> F  </i>
   </separator>
   <separator name="electronic convergence" >
    <i type="int" name="NELM">   150</i>
    <i type="int" name="NELMDL">    -5</i>
    <i type="int" name="NELMIN">     2</i>
    <i name="ENINI">    400.00000000</i>
    <separator name="electronic convergence detail" >
     <i type="logical" name="LDIAG"> T  </i>
     <i type="logical" name="LSUBROT"> F  </i>
     <i name="WEIMIN">      0.00000000</i>
     <i name="EBREAK">      0.00000000</i>
     <i name="DEPER">      0.30000000</i>
     <i type="int" name="NRMM">     4</i>
     <i name="TIME">      0.40000000</i>
    </separator>
   </separator>
   <separator name="electronic mixer" >
    <i name="AMIX">      0.40000000</i>
    <i name="BMIX">      1.00000000</i>
    <i name="AMIN">      0.10000000</i>
    <i name="AMIX_MAG">      1.60000000</i>
    <i name="BMIX_MAG">      1.00000000</i>
    <separator name="electronic mixer details" >
     <i type="int" name="IMIX">     4</i>
     <i type="logical" name="MIXFIRST"> F  </i>
     <i type="int" name="MAXMIX">   -45</i>
     <i name="WC">    100.00000000</i>
     <i type="int" name="INIMIX">     1</i>
     <i type="int" name="MIXPRE">     1</i>
     <i type="int" name="MREMOVE">     5</i>
    </separator>
   </separator>
   <separator name="electronic dipolcorrection" >
    <i type="logical" name="LDIPOL"> T  </i>
    <i type="logical" name="LMONO"> F  </i>
    <i type="int" name="IDIPOL">     3</i>
    <i name="EPSILON">      1.00000000</i>
    <v name="DIPOL">      0.25000000      0.25000000      0.50000000</v>
    <i name="EFIELD">      0.00000000</i>
   </separator>
  </separator>
  <separator name="grids" >
   <i type="int" name="NGX">    30</i>
   <i type="int" name="NGY">    30</i>
   <i type="int" name="NGZ">   140</i>
   <i type="int" name="NGXF">    60</i>
   <i type="int" name="NGYF">    60</i>
   <i type="int" name="NGZF">   280</i>
   <i type="logical" name="ADDGRID"> F  </i>
  </separator>
  <separator name="ionic" >
   <i type="int" name="NSW">     0</i>
   <i type="int" name="IBRION">    -1</i>
   <i type="int" name="MDALGO">     0</i>
   <i type="int" name="ISIF">     3</i>
   <i name="PSTRESS">      0.00000000</i>
   <i name="EDIFFG">     -0.01000000</i>
   <i type="int" name="NFREE">     0</i>
   <i name="POTIM">      0.50000000</i>
   <i name="SMASS">     -3.00000000</i>
   <i name="SCALEE">      1.00000000</i>
  </separator>
  <separator name="ionic md" >
   <i name="TEBEG">      0.00010000</i>
   <i name="TEEND">      0.00010000</i>
   <i type="int" name="NBLOCK">     1</i>
   <i type="int" name="KBLOCK">     1</i>
   <i type="int" name="NPACO">   256</i>
   <i name="APACO">     16.00000000</i>
  </separator>
  <separator name="symmetry" >
   <i type="int" name="ISYM">     2</i>
   <i name="SYMPREC">      0.00001000</i>
  </separator>
  <separator name="dos" >
   <i type="int" name="LORBIT">     0</i>
   <v name="RWIGS">     -1.00000000</v>
   <i type="int" name="NEDOS">   301</i>
   <i name="EMIN">     10.00000000</i>
   <i name="EMAX">    -10.00000000</i>
   <i name="EFERMI">      0.00000000</i>
  </separator>
  <separator name="writing" >
   <i type="int" name="NWRITE">     1</i>
   <i type="logical" name="LWAVE"> F  </i>
   <i type="logical" name="LDOWNSAMPLE"> F  </i>
   <i type="logical" name="LCHARG"> F  </i>
   <i type="logical" name="LPARD"> F  </i>
   <i type="logical" name="LVTOT"> F  </i>
   <i type="logical" name="LVHAR"> F  </i>
   <i type="logical" name="LELF"> F  </i>
   <i type="logical" name="LOPTICS"> F  </i>
   <v name="STM">      0.00000000      0.00000000      0.00000000      0.00000000      0.00000000      0.00000000      0.00000000</v>
  </separator>
  <separator name="performance" >
   <i type="int" name="NPAR">     8</i>
   <i type="int" name="NSIM">     4</i>
   <i type="int" name="NBLK">    -1</i>
   <i type="logical" name="LPLANE"> T  </i>
   <i type="logical" name="LSCALAPACK"> T  </i>
   <i type="logical" name="LSCAAWARE"> F  </i>
   <i type="logical" name="LSCALU"> F  </i>
   <i type="logical" name="LASYNC"> F  </i>
   <i type="logical" name="LORBITALREAL"> F  </i>
  </separator>
  <separator name="miscellaneous" >
   <i type="int" name="IDIOT">     3</i>
   <i type="int" name="PHON_NSTRUCT">    -1</i>
   <i type="logical" name="LMUSIC"> F  </i>
   <v name="POMASS">     22.99000000</v>
   <v name="DARWINR">      0.00000000</v>
   <v name="DARWINV">      1.00000000</v>
   <i type="logical" name="LCORR"> T  </i>
  </separator>
  <i type="logical" name="GGA_COMPAT"> T  </i>
  <i type="logical" name="LBERRY"> F  </i>
  <i type="int" name="ICORELEVEL">     0</i>
  <i type="logical" name="LDAU"> F  </i>
  <i type="int" name="I_CONSTRAINED_M">     0</i>
  <separator name="electronic exchange-correlation" >
   <i type="string" name="GGA">PE</i>
   <i type="int" name="VOSKOWN">     0</i>
   <i type="logical" name="LHFCALC"> F  </i>
   <i type="string" name="PRECFOCK"></i>
   <i type="logical" name="LSYMGRAD"> F  </i>
   <i type="logical" name="LHFONE"> F  </i>
   <i type="logical" name="LRHFCALC"> F  </i>
   <i type="logical" name="LTHOMAS"> F  </i>
   <i type="logical" name="LMODELHF"> F  </i>
   <i type="logical" name="LFOCKACE"> F  </i>
   <i name="ENCUT4O">     -1.00000000</i>
   <i type="int" name="EXXOEP">     0</i>
   <i type="int" name="FOURORBIT">     0</i>
   <i name="AEXX">      0.00000000</i>
   <i name="HFALPHA">      0.00000000</i>
   <i name="MCALPHA">      0.00000000</i>
   <i name="ALDAX">      1.00000000</i>
   <i name="AGGAX">      1.00000000</i>
   <i name="ALDAC">      1.00000000</i>
   <i name="AGGAC">      1.00000000</i>
   <i type="int" name="NKREDX">     1</i>
   <i type="int" name="NKREDY">     1</i>
   <i type="int" name="NKREDZ">     1</i>
   <i type="logical" name="SHIFTRED"> F  </i>
   <i type="logical" name="ODDONLY"> F  </i>
   <i type="logical" name="EVENONLY"> F  </i>
   <i type="int" name="LMAXFOCK">     0</i>
   <i type="int" name="NMAXFOCKAE">     0</i>
   <i type="logical" name="LFOCKAEDFT"> F  </i>
   <i name="HFSCREEN">      0.00000000</i>
   <i name="HFSCREENC">      0.00000000</i>
   <i type="int" name="NBANDSGWLOW">     0</i>
  </separator>
  <separator name="vdW DFT" >
   <i type="logical" name="LUSE_VDW"> F  </i>
   <i name="Zab_VDW">     -0.84910000</i>
   <i name="PARAM1">      0.12340000</i>
   <i name="PARAM2">      1.00000000</i>
   <i name="PARAM3">      0.00000000</i>
  </separator>
  <separator name="model GW" >
   <i type="int" name="MODEL_GW">     0</i>
   <i name="MODEL_EPS0">     47.66177176</i>
   <i name="MODEL_ALPHA">      1.00000000</i>
  </separator>
  <separator name="linear response parameters" >
   <i type="logical" name="LEPSILON"> F  </i>
   <i type="logical" name="LRPA"> F  </i>
   <i type="logical" name="LNABLA"> F  </i>
   <i type="logical" name="LVEL"> F  </i>
   <i type="int" name="KINTER">     0</i>
   <i name="CSHIFT">      0.10000000</i>
   <i name="OMEGAMAX">     -1.00000000</i>
   <i name="DEG_THRESHOLD">      0.00200000</i>
   <i name="RTIME">     -0.10000000</i>
   <i name="WPLASMAI">      0.00000000</i>
   <v name="DFIELD">      0.00000000      0.00000000      0.00000000</v>
   <v name="WPLASMA">      0.00000000      0.00000000      0.00000000      0.00000000      0.00000000      0.00000000      0.00000000      0.00000000      0.00000000</v>
  </separator>
  <separator name="orbital magnetization" >
   <i type="logical" name="NUCIND"> F  </i>
   <v name="MAGPOS">      0.00000000      0.00000000      0.00000000</v>
   <i type="logical" name="LNICSALL"> T  </i>
   <i type="logical" name="ORBITALMAG"> F  </i>
   <i type="logical" name="LMAGBLOCH"> F  </i>
   <i type="logical" name="LCHIMAG"> F  </i>
   <i type="logical" name="LGAUGE"> T  </i>
   <i type="int" name="MAGATOM">     0</i>
   <v name="MAGDIPOL">      0.00000000      0.00000000      0.00000000</v>
   <v name="AVECCONST">      0.00000000      0.00000000      0.00000000</v>
  </separator>
  <separator name="response functions" >
   <i type="logical" name="LFINITE_TEMPERATURE"> F  </i>
   <i type="logical" name="LADDER"> F  </i>
   <i type="logical" name="LRPAFORCE"> F  </i>
   <i type="logical" name="LFXC"> F  </i>
   <i type="logical" name="LHARTREE"> T  </i>
   <i type="int" name="IBSE">     0</i>
   <v type="int" name="KPOINT">    -1     0     0     0</v>
   <i type="logical" name="LTCTC"> F  </i>
   <i type="logical" name="LTCTE"> F  </i>
   <i type="logical" name="LTETE"> F  </i>
   <i type="logical" name="LTRIPLET"> F  </i>
   <i type="logical" name="LFXCEPS"> F  </i>
   <i type="logical" name="LFXHEG"> F  </i>
   <i type="int" name="NATURALO">     2</i>
   <i type="logical" name="LHOLEGF"> F  </i>
   <i type="logical" name="L2ORDER"> F  </i>
   <i type="logical" name="LDMP1"> F  </i>
   <i type="logical" name="LMP2LT"> F  </i>
   <i type="logical" name="LSMP2LT"> F  </i>
   <i type="logical" name="LGWLF"> F  </i>
   <i name="ENCUTGW">     -2.00000000</i>
   <i name="ENCUTGWSOFT">     -2.00000000</i>
   <i name="ENCUTLF">     -1.00000000</i>
   <i type="logical" name="LESF_SPLINES"> F  </i>
   <i type="int" name="LMAXMP2">    -1</i>
   <i name="SCISSOR">      0.00000000</i>
   <i type="int" name="NOMEGA">     0</i>
   <i type="int" name="NOMEGAR">     0</i>
   <i type="int" name="NBANDSGW">    -1</i>
   <i type="int" name="NBANDSO">    -1</i>
   <i type="int" name="NBANDSV">    -1</i>
   <i type="int" name="NELM">   150</i>
   <i type="int" name="NELMHF">     1</i>
   <i type="int" name="DIM">     3</i>
   <i type="int" name="IESPILON">     4</i>
   <i type="int" name="ANTIRES">     0</i>
   <i name="OMEGAMAX">    -30.00000000</i>
   <i name="OMEGAMIN">    -30.00000000</i>
   <i name="OMEGATL">   -200.00000000</i>
   <i type="int" name="OMEGAGRID">     0</i>
   <i name="CSHIFT">     -0.10000000</i>
   <i type="logical" name="LSELFENERGY"> F  </i>
   <i type="logical" name="LSPECTRAL"> F  </i>
   <i type="logical" name="LSPECTRALGW"> F  </i>
   <i type="logical" name="LSINGLES"> F  </i>
   <i type="logical" name="LFERMIGW"> F  </i>
   <i type="logical" name="ODDONLYGW"> F  </i>
   <i type="logical" name="EVENONLYGW"> F  </i>
   <i type="int" name="NKREDLFX">     1</i>
   <i type="int" name="NKREDLFY">     1</i>
   <i type="int" name="NKREDLFZ">     1</i>
   <i type="int" name="MAXMEM">  2800</i>
   <i type="int" name="TELESCOPE">     0</i>
   <i type="int" name="NTAUPAR">    -1</i>
   <i type="int" name="NOMEGAPAR">    -1</i>
   <i name="DAMP_NEWTON">      0.80000001</i>
   <i name="LAMBDA">      1.00000000</i>
  </separator>
  <separator name="External order field" >
   <i name="OFIELD_KAPPA">      0.00000000</i>
   <v name="OFIELD_K">      0.00000000      0.00000000      0.00000000</v>
   <i name="OFIELD_Q6_NEAR">      0.00000000</i>
   <i name="OFIELD_Q6_FAR">      0.00000000</i>
   <i name="OFIELD_A">      0.00000000</i>
  </separator>
 </parameters>
 <atominfo>
  <atoms>       6 </atoms>
  <types>       1 </types>
  <array name="atoms" >
   <dimension dim="1">ion</dimension>
   <field type="string">element</field>
   <field type="int">atomtype</field>
   <set>
    <rc><c>Na</c><c>   1</c></rc>
    <rc><c>Na</c><c>   1</c></rc>
    <rc><c>Na</c><c>   1</c></rc>
    <rc><c>Na</c><c>   1</c></rc>
    <rc><c>Na</c><c>   1</c></rc>
    <rc><c>Na</c><c>   1</c></rc>
   </set>
  </array>
  <array name="atomtypes" >
   <dimension dim="1">type</dimension>
   <field type="int">atomspertype</field>
   <field type="string">element</field>
   <field>mass</field>
   <field>valence</field>
   <field type="string">pseudopotential</field>
   <set>
    <rc><c>   6</c><c>Na</c><c>     22.99000000</c><c>      1.00000000</c><c>  PAW_PBE Na 08Apr2002                  </c></rc>
   </set>
  </array>
 </atominfo>
 <structure name="initialpos" >
  <crystal>
   <varray name="basis" >
    <v>       5.73109405       1.53564202       0.00000000 </v>
    <v>       1.53564202       5.73109405       0.00000000 </v>
    <v>     -15.63334949     -15.63334949      15.63334949 </v>
   </varray>
   <i name="volume">    476.61771760 </i>
   <varray name="rec_basis" >
    <v>       0.18798335      -0.05036999       0.13761336 </v>
    <v>      -0.05036999       0.18798335       0.13761336 </v>
    <v>       0.00000000       0.00000000       0.06396582 </v>
   </varray>
  </crystal>
  <varray name="positions" >
   <v>       0.50000095       0.50000095       0.38379491 </v>
   <v>       0.00000010       0.00000010       0.46126497 </v>
   <v>       0.50000095       0.50000095       0.46126497 </v>
   <v>       0.00000010       0.00000010       0.53873503 </v>
   <v>       0.50000095       0.50000095       0.53873503 </v>
   <v>       0.00000010       0.00000010       0.61620509 </v>
  </varray>
 </structure>
 <calculation>
  <scstep>
   <time name="dav">    0.03    0.03</time>
   <time name="total">    0.08    0.09</time>
   <dipole>
    <v name="dipole">     -0.00000000      -0.00000000       0.00000000 </v>
    <i name="Tr[quadrupol]">    -15.37442982 </i>
    <i name="Echarged">      0.00000000 </i>
    <i name="Edipol_quadrupol">      0.00000000 </i>
    <i name="Eion">      0.00000000 </i>
   </dipole>
   <energy>
    <i name="alphaZ">     -1.38345183 </i>
    <i name="ewald">     38.05830767 </i>
    <i name="hartreedc">    -53.07086662 </i>
    <i name="XCdc">   -219.84044388 </i>
    <i name="pawpsdc">    239.25687650 </i>
    <i name="pawaedc">    -14.20591521 </i>
    <i name="eentropy">     -0.00000000 </i>
    <i name="bandstr">    -13.97433912 </i>
    <i name="atom">     30.94829671 </i>
    <i name="e_fr_energy">      5.78846420 </i>
    <i name="e_wo_entrp">      5.78846420 </i>
    <i name="e_0_energy">      5.78846420 </i>
   </energy>
  </scstep>
  <scstep>
   <time name="dav">    0.02    0.03</time>
   <time name="total">    0.02    0.03</time>
   <dipole>
    <v name="dipole">     -0.00000000      -0.00000000       0.00000000 </v>
    <i name="Tr[quadrupol]">    -15.37442982 </i>
    <i name="Echarged">      0.00000000 </i>
    <i name="Edipol_quadrupol">      0.00000000 </i>
    <i name="Eion">      0.00000000 </i>
   </dipole>
   <energy>
    <i name="e_fr_energy">     -2.35145919 </i>
    <i name="e_wo_entrp">     -2.33892061 </i>
    <i name="e_0_energy">     -2.34518990 </i>
   </energy>
  </scstep>
  <scstep>
   <time name="dav">    0.03    0.03</time>
   <time name="total">    0.03    0.03</time>
   <dipole>
    <v name="dipole">     -0.00000000      -0.00000000       0.00000000 </v>
    <i name="Tr[quadrupol]">    -15.37442982 </i>
    <i name="Echarged">      0.00000000 </i>
    <i name="Edipol_quadrupol">      0.00000000 </i>
    <i name="Eion">      0.00000000 </i>
   </dipole>
   <energy>
    <i name="e_fr_energy">     -2.61759208 </i>
    <i name="e_wo_entrp">     -2.60503575 </i>
    <i name="e_0_energy">     -2.61131392 </i>
   </energy>
  </scstep>
  <scstep>
   <time name="dav">    0.02    0.02</time>
   <time name="total">    0.02    0.02</time>
   <dipole>
    <v name="dipole">     -0.00000000      -0.00000000       0.00000000 </v>
    <i name="Tr[quadrupol]">    -15.37442982 </i>
    <i name="Echarged">      0.00000000 </i>
    <i name="Edipol_quadrupol">      0.00000000 </i>
    <i name="Eion">      0.00000000 </i>
   </dipole>
   <energy>
    <i name="e_fr_energy">     -2.62456226 </i>
    <i name="e_wo_entrp">     -2.61200580 </i>
    <i name="e_0_energy">     -2.61828403 </i>
   </energy>
  </scstep>
  <scstep>
   <time name="dav">    0.02    0.02</time>
   <time name="total">    0.04    0.04</time>
   <dipole>
    <v name="dipole">     -0.00000000      -0.00000000       0.00000000 </v>
    <i name="Tr[quadrupol]">    -15.37442982 </i>
    <i name="Echarged">      0.00000000 </i>
    <i name="Edipol_quadrupol">      0.00000000 </i>
    <i name="Eion">      0.00000000 </i>
   </dipole>
   <energy>
    <i name="e_fr_energy">     -2.62459777 </i>
    <i name="e_wo_entrp">     -2.61204131 </i>
    <i name="e_0_energy">     -2.61831954 </i>
   </energy>
  </scstep>
  <scstep>
   <time name="diag">    0.04    0.04</time>
   <time name="diis">    0.01    0.01</time>
   <time name="orth">    0.00    0.00</time>
   <time name="total">    0.11    0.11</time>
   <dipole>
    <v name="dipole">      0.00000000       0.00000000      -0.00000000 </v>
    <i name="Tr[quadrupol]">    -16.95935474 </i>
    <i name="Echarged">      0.00000000 </i>
    <i name="Edipol_quadrupol">      0.00000000 </i>
    <i name="Eion">      0.00000000 </i>
   </dipole>
   <energy>
    <i name="e_fr_energy">     -2.36720730 </i>
    <i name="e_wo_entrp">     -2.35466976 </i>
    <i name="e_0_energy">     -2.36093853 </i>
   </energy>
  </scstep>
  <scstep>
   <time name="diag">    0.02    0.02</time>
   <time name="diis">    0.01    0.01</time>
   <time name="orth">    0.00    0.00</time>
   <time name="total">    0.09    0.09</time>
   <dipole>
    <v name="dipole">      0.00000000       0.00000000      -0.00000000 </v>
    <i name="Tr[quadrupol]">    -20.89079622 </i>
    <i name="Echarged">      0.00000000 </i>
    <i name="Edipol_quadrupol">      0.00000000 </i>
    <i name="Eion">      0.00000000 </i>
   </dipole>
   <energy>
    <i name="e_fr_energy">     -2.14583530 </i>
    <i name="e_wo_entrp">     -2.13142095 </i>
    <i name="e_0_energy">     -2.13862812 </i>
   </energy>
  </scstep>
  <scstep>
   <time name="diag">    0.02    0.02</time>
   <time name="diis">    0.01    0.01</time>
   <time name="orth">    0.00    0.00</time>
   <time name="total">    0.09    0.09</time>
   <dipole>
    <v name="dipole">      0.00000000       0.00000000      -0.00000000 </v>
    <i name="Tr[quadrupol]">    -21.26045998 </i>
    <i name="Echarged">      0.00000000 </i>
    <i name="Edipol_quadrupol">      0.00000000 </i>
    <i name="Eion">      0.00000000 </i>
   </dipole>
   <energy>
    <i name="e_fr_energy">     -2.15933452 </i>
    <i name="e_wo_entrp">     -2.14676052 </i>
    <i name="e_0_energy">     -2.15304752 </i>
   </energy>
  </scstep>
  <scstep>
   <time name="diag">    0.02    0.02</time>
   <time name="diis">    0.01    0.01</time>
   <time name="orth">    0.00    0.00</time>
   <time name="total">    0.09    0.09</time>
   <dipole>
    <v name="dipole">      0.00000000       0.00000000      -0.00000000 </v>
    <i name="Tr[quadrupol]">    -23.73293688 </i>
    <i name="Echarged">      0.00000000 </i>
    <i name="Edipol_quadrupol">      0.00000000 </i>
    <i name="Eion">      0.00000000 </i>
   </dipole>
   <energy>
    <i name="e_fr_energy">     -2.13878850 </i>
    <i name="e_wo_entrp">     -2.12444597 </i>
    <i name="e_0_energy">     -2.13161724 </i>
   </energy>
  </scstep>
  <scstep>
   <time name="diag">    0.02    0.02</time>
   <time name="diis">    0.01    0.01</time>
   <time name="orth">    0.00    0.00</time>
   <time name="total">    0.09    0.09</time>
   <dipole>
    <v name="dipole">      0.00000000       0.00000000      -0.00000000 </v>
    <i name="Tr[quadrupol]">    -24.35131482 </i>
    <i name="Echarged">      0.00000000 </i>
    <i name="Edipol_quadrupol">      0.00000000 </i>
    <i name="Eion">      0.00000000 </i>
   </dipole>
   <energy>
    <i name="e_fr_energy">     -2.14306580 </i>
    <i name="e_wo_entrp">     -2.12823563 </i>
    <i name="e_0_energy">     -2.13565071 </i>
   </energy>
  </scstep>
  <scstep>
   <time name="diag">    0.02    0.02</time>
   <time name="diis">    0.01    0.01</time>
   <time name="orth">    0.00    0.00</time>
   <time name="total">    0.09    0.09</time>
   <dipole>
    <v name="dipole">      0.00000000       0.00000000      -0.00000000 </v>
    <i name="Tr[quadrupol]">    -25.41964888 </i>
    <i name="Echarged">      0.00000000 </i>
    <i name="Edipol_quadrupol">      0.00000000 </i>
    <i name="Eion">      0.00000000 </i>
   </dipole>
   <energy>
    <i name="e_fr_energy">     -2.14207054 </i>
    <i name="e_wo_entrp">     -2.12708173 </i>
    <i name="e_0_energy">     -2.13457613 </i>
   </energy>
  </scstep>
  <scstep>
   <time name="diag">    0.02    0.02</time>
   <time name="diis">    0.01    0.01</time>
   <time name="orth">    0.00    0.00</time>
   <time name="total">    0.09    0.09</time>
   <dipole>
    <v name="dipole">      0.00000000       0.00000000      -0.00000000 </v>
    <i name="Tr[quadrupol]">    -25.64660178 </i>
    <i name="Echarged">      0.00000000 </i>
    <i name="Edipol_quadrupol">      0.00000000 </i>
    <i name="Eion">      0.00000000 </i>
   </dipole>
   <energy>
    <i name="e_fr_energy">     -2.14363381 </i>
    <i name="e_wo_entrp">     -2.12930038 </i>
    <i name="e_0_energy">     -2.13646710 </i>
   </energy>
  </scstep>
  <scstep>
   <time name="diag">    0.02    0.02</time>
   <time name="diis">    0.01    0.01</time>
   <time name="orth">    0.00    0.00</time>
   <time name="total">    0.09    0.09</time>
   <dipole>
    <v name="dipole">      0.00000000       0.00000000      -0.00000000 </v>
    <i name="Tr[quadrupol]">    -26.11277373 </i>
    <i name="Echarged">      0.00000000 </i>
    <i name="Edipol_quadrupol">      0.00000000 </i>
    <i name="Eion">      0.00000000 </i>
   </dipole>
   <energy>
    <i name="e_fr_energy">     -2.14387097 </i>
    <i name="e_wo_entrp">     -2.12934449 </i>
    <i name="e_0_energy">     -2.13660773 </i>
   </energy>
  </scstep>
  <scstep>
   <time name="diag">    0.02    0.02</time>
   <time name="diis">    0.01    0.01</time>
   <time name="orth">    0.00    0.00</time>
   <time name="total">    0.09    0.09</time>
   <dipole>
    <v name="dipole">      0.00000000       0.00000000      -0.00000000 </v>
    <i name="Tr[quadrupol]">    -26.19652834 </i>
    <i name="Echarged">      0.00000000 </i>
    <i name="Edipol_quadrupol">      0.00000000 </i>
    <i name="Eion">      0.00000000 </i>
   </dipole>
   <energy>
    <i name="e_fr_energy">     -2.14408794 </i>
    <i name="e_wo_entrp">     -2.12946442 </i>
    <i name="e_0_energy">     -2.13677618 </i>
   </energy>
  </scstep>
  <scstep>
   <time name="diag">    0.02    0.02</time>
   <time name="diis">    0.01    0.01</time>
   <time name="orth">    0.00    0.00</time>
   <time name="total">    0.09    0.09</time>
   <dipole>
    <v name="dipole">      0.00000000       0.00000000      -0.00000000 </v>
    <i name="Tr[quadrupol]">    -26.20250928 </i>
    <i name="Echarged">      0.00000000 </i>
    <i name="Edipol_quadrupol">      0.00000000 </i>
    <i name="Eion">      0.00000000 </i>
   </dipole>
   <energy>
    <i name="e_fr_energy">     -2.14412271 </i>
    <i name="e_wo_entrp">     -2.12949042 </i>
    <i name="e_0_energy">     -2.13680656 </i>
   </energy>
  </scstep>
  <scstep>
   <time name="diag">    0.02    0.02</time>
   <time name="diis">    0.01    0.01</time>
   <time name="orth">    0.00    0.00</time>
   <time name="total">    0.09    0.09</time>
   <dipole>
    <v name="dipole">      0.00000000       0.00000000      -0.00000000 </v>
    <i name="Tr[quadrupol]">    -26.20449933 </i>
    <i name="Echarged">      0.00000000 </i>
    <i name="Edipol_quadrupol">      0.00000000 </i>
    <i name="Eion">      0.00000000 </i>
   </dipole>
   <energy>
    <i name="e_fr_energy">     -2.14412166 </i>
    <i name="e_wo_entrp">     -2.12948298 </i>
    <i name="e_0_energy">     -2.13680232 </i>
   </energy>
  </scstep>
  <scstep>
   <time name="diag">    0.02    0.02</time>
   <time name="diis">    0.01    0.01</time>
   <time name="orth">    0.00    0.00</time>
   <time name="total">    0.09    0.09</time>
   <dipole>
    <v name="dipole">      0.00000000       0.00000000      -0.00000000 </v>
    <i name="Tr[quadrupol]">    -26.20050768 </i>
    <i name="Echarged">      0.00000000 </i>
    <i name="Edipol_quadrupol">      0.00000000 </i>
    <i name="Eion">      0.00000000 </i>
   </dipole>
   <energy>
    <i name="e_fr_energy">     -2.14412996 </i>
    <i name="e_wo_entrp">     -2.12953088 </i>
    <i name="e_0_energy">     -2.13683042 </i>
   </energy>
  </scstep>
  <scstep>
   <time name="diag">    0.02    0.02</time>
   <time name="diis">    0.01    0.01</time>
   <time name="orth">    0.00    0.00</time>
   <time name="total">    0.09    0.09</time>
   <dipole>
    <v name="dipole">      0.00000000       0.00000000      -0.00000000 </v>
    <i name="Tr[quadrupol]">    -26.20054129 </i>
    <i name="Echarged">      0.00000000 </i>
    <i name="Edipol_quadrupol">      0.00000000 </i>
    <i name="Eion">      0.00000000 </i>
   </dipole>
   <energy>
    <i name="e_fr_energy">     -2.14413026 </i>
    <i name="e_wo_entrp">     -2.12953229 </i>
    <i name="e_0_energy">     -2.13683127 </i>
   </energy>
  </scstep>
  <scstep>
   <time name="diag">    0.04    0.05</time>
   <time name="diis">    0.01    0.01</time>
   <time name="orth">    0.00    0.00</time>
   <time name="total">    0.23    0.40</time>
   <dipole>
    <v name="dipole">      0.00000000       0.00000000      -0.00000000 </v>
    <i name="Tr[quadrupol]">    -26.20173441 </i>
    <i name="Echarged">      0.00000000 </i>
    <i name="Edipol_quadrupol">      0.00000000 </i>
    <i name="Eion">      0.00000000 </i>
   </dipole>
   <energy>
    <i name="e_fr_energy">     -2.14413022 </i>
    <i name="e_wo_entrp">     -2.12952983 </i>
    <i name="e_0_energy">     -2.13683002 </i>
   </energy>
  </scstep>
  <scstep>
   <time name="diag">    0.02    0.03</time>
   <time name="diis">    0.01    0.01</time>
   <time name="orth">    0.00    0.00</time>
   <time name="total">    0.10    0.12</time>
   <dipole>
    <v name="dipole">      0.00000000       0.00000000      -0.00000000 </v>
    <i name="Tr[quadrupol]">    -26.20197803 </i>
    <i name="Echarged">      0.00000000 </i>
    <i name="Edipol_quadrupol">      0.00000000 </i>
    <i name="Eion">      0.00000000 </i>
   </dipole>
   <energy>
    <i name="e_fr_energy">     -2.14413019 </i>
    <i name="e_wo_entrp">     -2.12952827 </i>
    <i name="e_0_energy">     -2.13682923 </i>
   </energy>
  </scstep>
  <scstep>
   <time name="diag">    0.02    0.02</time>
   <time name="diis">    0.01    0.01</time>
   <time name="orth">    0.00    0.00</time>
   <time name="total">    0.08    0.08</time>
   <dipole>
    <v name="dipole">      0.00000000       0.00000000      -0.00000000 </v>
    <i name="Tr[quadrupol]">    -26.20172642 </i>
    <i name="Echarged">      0.00000000 </i>
    <i name="Edipol_quadrupol">      0.00000000 </i>
    <i name="Eion">      0.00000000 </i>
   </dipole>
   <energy>
    <i name="alphaZ">     -1.38345183 </i>
    <i name="ewald">     38.05830767 </i>
    <i name="hartreedc">    -59.65634167 </i>
    <i name="XCdc">   -219.08363649 </i>
    <i name="pawpsdc">    253.51902900 </i>
    <i name="pawaedc">    -28.55141199 </i>
    <i name="eentropy">     -0.01460216 </i>
    <i name="bandstr">    -15.98031942 </i>
    <i name="atom">     30.94829671 </i>
    <i name="e_fr_energy">     -2.14413018 </i>
    <i name="e_wo_entrp">     -2.12952802 </i>
    <i name="e_0_energy">     -2.13682910 </i>
   </energy>
  </scstep>
  <structure>
   <crystal>
    <varray name="basis" >
     <v>       5.73109405       1.53564202       0.00000000 </v>
     <v>       1.53564202       5.73109405       0.00000000 </v>
     <v>     -15.63334949     -15.63334949      15.63334949 </v>
    </varray>
    <i name="volume">    476.61771760 </i>
    <varray name="rec_basis" >
     <v>       0.18798335      -0.05036999       0.13761336 </v>
     <v>      -0.05036999       0.18798335       0.13761336 </v>
     <v>       0.00000000       0.00000000       0.06396582 </v>
    </varray>
   </crystal>
   <varray name="positions" >
    <v>       0.50000095       0.50000095       0.38379491 </v>
    <v>       0.00000010       0.00000010       0.46126497 </v>
    <v>       0.50000095       0.50000095       0.46126497 </v>
    <v>       0.00000010       0.00000010       0.53873503 </v>
    <v>       0.50000095       0.50000095       0.53873503 </v>
    <v>       0.00000010       0.00000010       0.61620509 </v>
   </varray>
  </structure>
  <varray name="forces" >
   <v>       1.10648597       1.10648597      -1.58244237 </v>
   <v>       1.26359110       1.26359110      -1.12769017 </v>
   <v>      -0.26378274      -0.26378274      -0.33326098 </v>
   <v>       0.26378274       0.26378274       0.33326098 </v>
   <v>      -1.26359110      -1.26359110       1.12769017 </v>
   <v>      -1.10648597      -1.10648597       1.58244237 </v>
  </varray>
  <varray name="stress" >
   <v>      25.41108656       8.80352413     -17.57828197 </v>
   <v>       8.80352413      25.41108656     -17.57828197 </v>
   <v>     -17.57828197     -17.57828197      25.32120861 </v>
  </varray>
  <energy>
   <i name="e_fr_energy">     -2.14413018 </i>
   <i name="e_wo_entrp">     -2.12952802 </i>
   <i name="e_0_energy">     -2.13682910 </i>
  </energy>
  <time name="totalsc">    1.93    2.15</time>
  <eigenvalues>
   <array>
    <dimension dim="1">band</dimension>
    <dimension dim="2">kpoint</dimension>
    <dimension dim="3">spin</dimension>
    <field>eigene</field>
    <field>occ</field>
    <set>
     <set comment="spin 1">
      <set comment="kpoint 1">
       <r>   -4.6784    1.0000 </r>
       <r>   -2.3594    1.0000 </r>
       <r>   -0.4340    0.0000 </r>
       <r>    0.0547    0.0000 </r>
       <r>    0.3924    0.0000 </r>
       <r>    0.6797    0.0000 </r>
       <r>    0.7670    0.0000 </r>
       <r>    1.6917    0.0000 </r>
      </set>
      <set comment="kpoint 2">
       <r>   -4.0458    1.0000 </r>
       <r>   -2.1290    1.0000 </r>
       <r>   -1.7540    1.0000 </r>
       <r>   -0.3379    0.0000 </r>
       <r>   -0.2845    0.0000 </r>
       <r>    0.0472    0.0000 </r>
       <r>    0.2131    0.0000 </r>
       <r>    1.5866    0.0000 </r>
      </set>
      <set comment="kpoint 3">
       <r>   -4.0309    1.0000 </r>
       <r>   -2.1521    1.0000 </r>
       <r>   -1.7343    1.0000 </r>
       <r>   -0.8736    0.4707 </r>
       <r>   -0.1009    0.0000 </r>
       <r>    0.4177    0.0000 </r>
       <r>    0.5693    0.0000 </r>
       <r>    1.4958    0.0000 </r>
      </set>
      <set comment="kpoint 4">
       <r>   -3.0451    1.0000 </r>
       <r>   -2.7822    1.0000 </r>
       <r>   -2.4014    1.0000 </r>
       <r>   -0.7451    0.0292 </r>
       <r>   -0.5978    0.0000 </r>
       <r>   -0.1879    0.0000 </r>
       <r>    0.9753    0.0000 </r>
       <r>    1.7445    0.0000 </r>
      </set>
     </set>
    </set>
   </array>
  </eigenvalues>
  <separator name="orbital magnetization" >
   <v name="MAGDIPOLOUT">      0.00000000      0.00000000      0.00000000</v>
  </separator>
  <dos>
   <i name="efermi">     -0.87883840 </i>
   <total>
    <array>
     <dimension dim="1">gridpoints</dimension>
     <dimension dim="2">spin</dimension>
     <field>energy</field>
     <field>total</field>
     <field>integrated</field>
     <set>
      <set comment="spin 1">
       <r>    -5.6784     0.0000     0.0000 </r>
       <r>    -5.6503     0.0000     0.0000 </r>
       <r>    -5.6222     0.0000     0.0000 </r>
       <r>    -5.5941     0.0000     0.0000 </r>
       <r>    -5.5661     0.0000     0.0000 </r>
       <r>    -5.5380     0.0000     0.0000 </r>
       <r>    -5.5099     0.0000     0.0000 </r>
       <r>    -5.4818     0.0000     0.0000 </r>
       <r>    -5.4538     0.0000     0.0000 </r>
       <r>    -5.4257     0.0000     0.0000 </r>
       <r>    -5.3976     0.0000     0.0000 </r>
       <r>    -5.3695     0.0000     0.0000 </r>
       <r>    -5.3414     0.0000     0.0000 </r>
       <r>    -5.3134     0.0000     0.0000 </r>
       <r>    -5.2853     0.0000     0.0000 </r>
       <r>    -5.2572     0.0000     0.0000 </r>
       <r>    -5.2291     0.0000     0.0000 </r>
       <r>    -5.2011     0.0000     0.0000 </r>
       <r>    -5.1730     0.0000     0.0000 </r>
       <r>    -5.1449     0.0000     0.0000 </r>
       <r>    -5.1168     0.0000     0.0000 </r>
       <r>    -5.0888     0.0000     0.0000 </r>
       <r>    -5.0607     0.0000     0.0000 </r>
       <r>    -5.0326     0.0000     0.0000 </r>
       <r>    -5.0045     0.0000     0.0000 </r>
       <r>    -4.9765     0.0001     0.0000 </r>
       <r>    -4.9484     0.0004     0.0000 </r>
       <r>    -4.9203     0.0019     0.0001 </r>
       <r>    -4.8922     0.0074     0.0003 </r>
       <r>    -4.8641     0.0242     0.0010 </r>
       <r>    -4.8361     0.0678     0.0029 </r>
       <r>    -4.8080     0.1624     0.0074 </r>
       <r>    -4.7799     0.3331     0.0168 </r>
       <r>    -4.7518     0.5849     0.0332 </r>
       <r>    -4.7238     0.8789     0.0579 </r>
       <r>    -4.6957     1.1303     0.0896 </r>
       <r>    -4.6676     1.2442     0.1245 </r>
       <r>    -4.6395     1.1723     0.1574 </r>
       <r>    -4.6115     0.9453     0.1840 </r>
       <r>    -4.5834     0.6525     0.2023 </r>
       <r>    -4.5553     0.3854     0.2131 </r>
       <r>    -4.5272     0.1949     0.2186 </r>
       <r>    -4.4992     0.0843     0.2210 </r>
       <r>    -4.4711     0.0312     0.2218 </r>
       <r>    -4.4430     0.0099     0.2221 </r>
       <r>    -4.4149     0.0027     0.2222 </r>
       <r>    -4.3869     0.0006     0.2222 </r>
       <r>    -4.3588     0.0003     0.2222 </r>
       <r>    -4.3307     0.0009     0.2223 </r>
       <r>    -4.3026     0.0044     0.2224 </r>
       <r>    -4.2745     0.0184     0.2229 </r>
       <r>    -4.2465     0.0664     0.2248 </r>
       <r>    -4.2184     0.2055     0.2305 </r>
       <r>    -4.1903     0.5449     0.2458 </r>
       <r>    -4.1622     1.2382     0.2806 </r>
       <r>    -4.1342     2.4113     0.3483 </r>
       <r>    -4.1061     4.0245     0.4613 </r>
       <r>    -4.0780     5.7570     0.6229 </r>
       <r>    -4.0499     7.0587     0.8211 </r>
       <r>    -4.0219     7.4188     1.0294 </r>
       <r>    -3.9938     6.6839     1.2170 </r>
       <r>    -3.9657     5.1622     1.3620 </r>
       <r>    -3.9376     3.4179     1.4579 </r>
       <r>    -3.9096     1.9401     1.5124 </r>
       <r>    -3.8815     0.9441     1.5389 </r>
       <r>    -3.8534     0.3938     1.5500 </r>
       <r>    -3.8253     0.1409     1.5539 </r>
       <r>    -3.7972     0.0432     1.5551 </r>
       <r>    -3.7692     0.0114     1.5555 </r>
       <r>    -3.7411     0.0026     1.5555 </r>
       <r>    -3.7130     0.0005     1.5556 </r>
       <r>    -3.6849     0.0001     1.5556 </r>
       <r>    -3.6569     0.0000     1.5556 </r>
       <r>    -3.6288     0.0000     1.5556 </r>
       <r>    -3.6007     0.0000     1.5556 </r>
       <r>    -3.5726     0.0000     1.5556 </r>
       <r>    -3.5446     0.0000     1.5556 </r>
       <r>    -3.5165     0.0000     1.5556 </r>
       <r>    -3.4884     0.0000     1.5556 </r>
       <r>    -3.4603     0.0000     1.5556 </r>
       <r>    -3.4323     0.0000     1.5556 </r>
       <r>    -3.4042     0.0000     1.5556 </r>
       <r>    -3.3761     0.0000     1.5556 </r>
       <r>    -3.3480     0.0001     1.5556 </r>
       <r>    -3.3199     0.0007     1.5556 </r>
       <r>    -3.2919     0.0030     1.5557 </r>
       <r>    -3.2638     0.0119     1.5560 </r>
       <r>    -3.2357     0.0399     1.5571 </r>
       <r>    -3.2076     0.1149     1.5603 </r>
       <r>    -3.1796     0.2828     1.5683 </r>
       <r>    -3.1515     0.5957     1.5850 </r>
       <r>    -3.1234     1.0741     1.6152 </r>
       <r>    -3.0953     1.6576     1.6617 </r>
       <r>    -3.0673     2.1897     1.7232 </r>
       <r>    -3.0392     2.4768     1.7927 </r>
       <r>    -3.0111     2.4022     1.8602 </r>
       <r>    -2.9830     2.0095     1.9166 </r>
       <r>    -2.9550     1.4854     1.9583 </r>
       <r>    -2.9269     1.0601     1.9881 </r>
       <r>    -2.8988     0.9049     2.0135 </r>
       <r>    -2.8707     1.0786     2.0437 </r>
       <r>    -2.8427     1.5153     2.0863 </r>
       <r>    -2.8146     2.0381     2.1435 </r>
       <r>    -2.7865     2.4165     2.2114 </r>
       <r>    -2.7584     2.4696     2.2807 </r>
       <r>    -2.7303     2.1638     2.3414 </r>
       <r>    -2.7023     1.6234     2.3870 </r>
       <r>    -2.6742     1.0431     2.4163 </r>
       <r>    -2.6461     0.5764     2.4325 </r>
       <r>    -2.6180     0.2833     2.4405 </r>
       <r>    -2.5900     0.1552     2.4448 </r>
       <r>    -2.5619     0.1728     2.4497 </r>
       <r>    -2.5338     0.3484     2.4594 </r>
       <r>    -2.5057     0.7260     2.4798 </r>
       <r>    -2.4777     1.3361     2.5173 </r>
       <r>    -2.4496     2.1266     2.5771 </r>
       <r>    -2.4215     2.9243     2.6592 </r>
       <r>    -2.3934     3.4797     2.7569 </r>
       <r>    -2.3654     3.5974     2.8579 </r>
       <r>    -2.3373     3.2698     2.9497 </r>
       <r>    -2.3092     2.7167     3.0259 </r>
       <r>    -2.2811     2.3041     3.0906 </r>
       <r>    -2.2530     2.3922     3.1578 </r>
       <r>    -2.2250     3.1747     3.2469 </r>
       <r>    -2.1969     4.5511     3.3747 </r>
       <r>    -2.1688     6.0923     3.5458 </r>
       <r>    -2.1407     7.1824     3.7474 </r>
       <r>    -2.1127     7.3246     3.9531 </r>
       <r>    -2.0846     6.4284     4.1335 </r>
       <r>    -2.0565     4.8479     4.2697 </r>
       <r>    -2.0284     3.1408     4.3578 </r>
       <r>    -2.0004     1.7525     4.4070 </r>
       <r>    -1.9723     0.8617     4.4312 </r>
       <r>    -1.9442     0.4399     4.4436 </r>
       <r>    -1.9161     0.4094     4.4551 </r>
       <r>    -1.8881     0.7634     4.4765 </r>
       <r>    -1.8600     1.5756     4.5207 </r>
       <r>    -1.8319     2.8950     4.6020 </r>
       <r>    -1.8038     4.5839     4.7307 </r>
       <r>    -1.7757     6.2303     4.9057 </r>
       <r>    -1.7477     7.2664     5.1097 </r>
       <r>    -1.7196     7.2726     5.3139 </r>
       <r>    -1.6915     6.2468     5.4892 </r>
       <r>    -1.6634     4.6053     5.6185 </r>
       <r>    -1.6354     2.9142     5.7004 </r>
       <r>    -1.6073     1.5829     5.7448 </r>
       <r>    -1.5792     0.7380     5.7655 </r>
       <r>    -1.5511     0.2954     5.7738 </r>
       <r>    -1.5231     0.1015     5.7767 </r>
       <r>    -1.4950     0.0299     5.7775 </r>
       <r>    -1.4669     0.0076     5.7777 </r>
       <r>    -1.4388     0.0016     5.7778 </r>
       <r>    -1.4108     0.0003     5.7778 </r>
       <r>    -1.3827     0.0000     5.7778 </r>
       <r>    -1.3546     0.0000     5.7778 </r>
       <r>    -1.3265     0.0000     5.7778 </r>
       <r>    -1.2985     0.0000     5.7778 </r>
       <r>    -1.2704     0.0000     5.7778 </r>
       <r>    -1.2423     0.0000     5.7778 </r>
       <r>    -1.2142     0.0000     5.7778 </r>
       <r>    -1.1861     0.0001     5.7778 </r>
       <r>    -1.1581     0.0004     5.7778 </r>
       <r>    -1.1300     0.0018     5.7778 </r>
       <r>    -1.1019     0.0076     5.7781 </r>
       <r>    -1.0738     0.0269     5.7788 </r>
       <r>    -1.0458     0.0816     5.7811 </r>
       <r>    -1.0177     0.2122     5.7871 </r>
       <r>    -0.9896     0.4732     5.8003 </r>
       <r>    -0.9615     0.9066     5.8258 </r>
       <r>    -0.9335     1.4978     5.8678 </r>
       <r>    -0.9054     2.1497     5.9282 </r>
       <r>    -0.8773     2.7171     6.0045 </r>
       <r>    -0.8492     3.0944     6.0914 </r>
       <r>    -0.8212     3.2797     6.1835 </r>
       <r>    -0.7931     3.3459     6.2774 </r>
       <r>    -0.7650     3.3500     6.3714 </r>
       <r>    -0.7369     3.2925     6.4639 </r>
       <r>    -0.7088     3.1695     6.5529 </r>
       <r>    -0.6808     3.0332     6.6380 </r>
       <r>    -0.6527     2.9606     6.7212 </r>
       <r>    -0.6246     2.9589     6.8042 </r>
       <r>    -0.5965     2.9328     6.8866 </r>
       <r>    -0.5685     2.7741     6.9645 </r>
       <r>    -0.5404     2.4885     7.0343 </r>
       <r>    -0.5123     2.2297     7.0969 </r>
       <r>    -0.4842     2.2208     7.1593 </r>
       <r>    -0.4562     2.6482     7.2336 </r>
       <r>    -0.4281     3.6050     7.3349 </r>
       <r>    -0.4000     5.0652     7.4771 </r>
       <r>    -0.3719     6.8439     7.6692 </r>
       <r>    -0.3439     8.5754     7.9100 </r>
       <r>    -0.3158     9.8007     8.1852 </r>
       <r>    -0.2877    10.1770     8.4709 </r>
       <r>    -0.2596     9.6740     8.7425 </r>
       <r>    -0.2316     8.5869     8.9836 </r>
       <r>    -0.2035     7.3455     9.1898 </r>
       <r>    -0.1754     6.2758     9.3660 </r>
       <r>    -0.1473     5.4889     9.5201 </r>
       <r>    -0.1192     4.9430     9.6589 </r>
       <r>    -0.0912     4.5910     9.7878 </r>
       <r>    -0.0631     4.4832     9.9137 </r>
       <r>    -0.0350     4.7349    10.0466 </r>
       <r>    -0.0069     5.3673    10.1973 </r>
       <r>     0.0211     6.1677    10.3705 </r>
       <r>     0.0492     6.7482    10.5599 </r>
       <r>     0.0773     6.8165    10.7513 </r>
       <r>     0.1054     6.4227    10.9317 </r>
       <r>     0.1334     5.9206    11.0979 </r>
       <r>     0.1615     5.6486    11.2565 </r>
       <r>     0.1896     5.6316    11.4146 </r>
       <r>     0.2177     5.5878    11.5715 </r>
       <r>     0.2457     5.2244    11.7182 </r>
       <r>     0.2738     4.5281    11.8453 </r>
       <r>     0.3019     3.7891    11.9517 </r>
       <r>     0.3300     3.3608    12.0460 </r>
       <r>     0.3581     3.3824    12.1410 </r>
       <r>     0.3861     3.6899    12.2446 </r>
       <r>     0.4142     3.9611    12.3558 </r>
       <r>     0.4423     3.9649    12.4671 </r>
       <r>     0.4704     3.7126    12.5714 </r>
       <r>     0.4984     3.4018    12.6669 </r>
       <r>     0.5265     3.2195    12.7573 </r>
       <r>     0.5546     3.1927    12.8469 </r>
       <r>     0.5827     3.2066    12.9369 </r>
       <r>     0.6107     3.1416    13.0251 </r>
       <r>     0.6388     2.9754    13.1087 </r>
       <r>     0.6669     2.7679    13.1864 </r>
       <r>     0.6950     2.5772    13.2588 </r>
       <r>     0.7230     2.4042    13.3263 </r>
       <r>     0.7511     2.2043    13.3881 </r>
       <r>     0.7792     1.9390    13.4426 </r>
       <r>     0.8073     1.6243    13.4882 </r>
       <r>     0.8354     1.3467    13.5260 </r>
       <r>     0.8634     1.2311    13.5606 </r>
       <r>     0.8915     1.3674    13.5990 </r>
       <r>     0.9196     1.7354    13.6477 </r>
       <r>     0.9477     2.1803    13.7089 </r>
       <r>     0.9757     2.4757    13.7784 </r>
       <r>     1.0038     2.4498    13.8472 </r>
       <r>     1.0319     2.0868    13.9058 </r>
       <r>     1.0600     1.5241    13.9486 </r>
       <r>     1.0880     0.9533    13.9753 </r>
       <r>     1.1161     0.5104    13.9897 </r>
       <r>     1.1442     0.2339    13.9962 </r>
       <r>     1.1723     0.0918    13.9988 </r>
       <r>     1.2003     0.0310    13.9997 </r>
       <r>     1.2284     0.0099    14.0000 </r>
       <r>     1.2565     0.0066    14.0001 </r>
       <r>     1.2846     0.0174    14.0006 </r>
       <r>     1.3126     0.0552    14.0022 </r>
       <r>     1.3407     0.1546    14.0065 </r>
       <r>     1.3688     0.3750    14.0171 </r>
       <r>     1.3969     0.7906    14.0392 </r>
       <r>     1.4250     1.4615    14.0803 </r>
       <r>     1.4530     2.3949    14.1475 </r>
       <r>     1.4811     3.5223    14.2464 </r>
       <r>     1.5092     4.7054    14.3785 </r>
       <r>     1.5373     5.7585    14.5402 </r>
       <r>     1.5653     6.4827    14.7222 </r>
       <r>     1.5934     6.7331    14.9113 </r>
       <r>     1.6215     6.5086    15.0940 </r>
       <r>     1.6496     5.9801    15.2619 </r>
       <r>     1.6776     5.3876    15.4132 </r>
       <r>     1.7057     4.8688    15.5499 </r>
       <r>     1.7338     4.3808    15.6729 </r>
       <r>     1.7619     3.7889    15.7792 </r>
       <r>     1.7899     3.0253    15.8642 </r>
       <r>     1.8180     2.1637    15.9249 </r>
       <r>     1.8461     1.3609    15.9631 </r>
       <r>     1.8742     0.7450    15.9840 </r>
       <r>     1.9023     0.3529    15.9940 </r>
       <r>     1.9303     0.1442    15.9980 </r>
       <r>     1.9584     0.0507    15.9994 </r>
       <r>     1.9865     0.0153    15.9999 </r>
       <r>     2.0146     0.0040    16.0000 </r>
       <r>     2.0426     0.0009    16.0000 </r>
       <r>     2.0707     0.0002    16.0000 </r>
       <r>     2.0988     0.0000    16.0000 </r>
       <r>     2.1269     0.0000    16.0000 </r>
       <r>     2.1549     0.0000    16.0000 </r>
       <r>     2.1830     0.0000    16.0000 </r>
       <r>     2.2111     0.0000    16.0000 </r>
       <r>     2.2392     0.0000    16.0000 </r>
       <r>     2.2672     0.0000    16.0000 </r>
       <r>     2.2953     0.0000    16.0000 </r>
       <r>     2.3234     0.0000    16.0000 </r>
       <r>     2.3515     0.0000    16.0000 </r>
       <r>     2.3796     0.0000    16.0000 </r>
       <r>     2.4076     0.0000    16.0000 </r>
       <r>     2.4357     0.0000    16.0000 </r>
       <r>     2.4638     0.0000    16.0000 </r>
       <r>     2.4919     0.0000    16.0000 </r>
       <r>     2.5199     0.0000    16.0000 </r>
       <r>     2.5480     0.0000    16.0000 </r>
       <r>     2.5761     0.0000    16.0000 </r>
       <r>     2.6042     0.0000    16.0000 </r>
       <r>     2.6322     0.0000    16.0000 </r>
       <r>     2.6603     0.0000    16.0000 </r>
       <r>     2.6884     0.0000    16.0000 </r>
       <r>     2.7165     0.0000    16.0000 </r>
       <r>     2.7445     0.0000    16.0000 </r>
      </set>
     </set>
    </array>
   </total>
  </dos>
 </calculation>
 <structure name="finalpos" >
  <crystal>
   <varray name="basis" >
    <v>       5.73109405       1.53564202       0.00000000 </v>
    <v>       1.53564202       5.73109405       0.00000000 </v>
    <v>     -15.63334949     -15.63334949      15.63334949 </v>
   </varray>
   <i name="volume">    476.61771760 </i>
   <varray name="rec_basis" >
    <v>       0.18798335      -0.05036999       0.13761336 </v>
    <v>      -0.05036999       0.18798335       0.13761336 </v>
    <v>       0.00000000       0.00000000       0.06396582 </v>
   </varray>
  </crystal>
  <varray name="positions" >
   <v>       0.50000095       0.50000095       0.38379491 </v>
   <v>       0.00000010       0.00000010       0.46126497 </v>
   <v>       0.50000095       0.50000095       0.46126497 </v>
   <v>       0.00000010       0.00000010       0.53873503 </v>
   <v>       0.50000095       0.50000095       0.53873503 </v>
   <v>       0.00000010       0.00000010       0.61620509 </v>
  </varray>
 </structure>
</modeling>
