unknown system                          
           1
     5.731094    1.535642    0.000000
     1.535642    5.731094    0.000000
   -15.633349  -15.633349   15.633349
   Na
     6
Direct configuration=     1
   0.50000095  0.50000095  0.38379491
   0.00000010  0.00000010  0.46126497
   0.50000095  0.50000095  0.46126497
   0.00000010  0.00000010  0.53873503
   0.50000095  0.50000095  0.53873503
   0.00000010  0.00000010  0.61620509
