  12  12   0   0
  0.5566257E+02  0.4195452E-09  0.5933265E-09  0.3794783E-08  0.5000000E-15
  1.000000000000000E-004
  CAR 
 unknown system                          
      3.73978588     -4.69493119  301     -0.53031784      1.00000000
     -4.695  0.0000E+00  0.0000E+00
     -4.667  0.0000E+00  0.0000E+00
     -4.639  0.0000E+00  0.0000E+00
     -4.611  0.0000E+00  0.0000E+00
     -4.582  0.0000E+00  0.0000E+00
     -4.554  0.0000E+00  0.0000E+00
     -4.526  0.0000E+00  0.0000E+00
     -4.498  0.0000E+00  0.0000E+00
     -4.470  0.0000E+00  0.0000E+00
     -4.442  0.0000E+00  0.0000E+00
     -4.414  0.0000E+00  0.0000E+00
     -4.386  0.0000E+00  0.0000E+00
     -4.358  0.0000E+00  0.0000E+00
     -4.329  0.0000E+00  0.0000E+00
     -4.301  0.0000E+00  0.0000E+00
     -4.273  0.1316E-14  0.3701E-16
     -4.245  0.2720E-13  0.8018E-15
     -4.217  0.5849E-12  0.1725E-13
     -4.189  0.1064E-10  0.3164E-12
     -4.161  0.1656E-09  0.4972E-11
     -4.133  0.2204E-08  0.6693E-10
     -4.105  0.2507E-07  0.7719E-09
     -4.076  0.2440E-06  0.7632E-08
     -4.048  0.2030E-05  0.6471E-07
     -4.020  0.1445E-04  0.4709E-06
     -3.992  0.8793E-04  0.2943E-05
     -3.964  0.4577E-03  0.1581E-04
     -3.936  0.2038E-02  0.7311E-04
     -3.908  0.7762E-02  0.2914E-03
     -3.880  0.2529E-01  0.1002E-02
     -3.851  0.7047E-01  0.2984E-02
     -3.823  0.1680E+00  0.7707E-02
     -3.795  0.3426E+00  0.1734E-01
     -3.767  0.5979E+00  0.3415E-01
     -3.739  0.8924E+00  0.5924E-01
     -3.711  0.1140E+01  0.9129E-01
     -3.683  0.1246E+01  0.1263E+00
     -3.655  0.1166E+01  0.1591E+00
     -3.627  0.9395E+00  0.1855E+00
     -3.598  0.6651E+00  0.2042E+00
     -3.570  0.4504E+00  0.2169E+00
     -3.542  0.3690E+00  0.2272E+00
     -3.514  0.4459E+00  0.2398E+00
     -3.486  0.6579E+00  0.2583E+00
     -3.458  0.9342E+00  0.2845E+00
     -3.430  0.1172E+01  0.3175E+00
     -3.402  0.1284E+01  0.3536E+00
     -3.373  0.1255E+01  0.3889E+00
     -3.345  0.1174E+01  0.4219E+00
     -3.317  0.1185E+01  0.4552E+00
     -3.289  0.1400E+01  0.4946E+00
     -3.261  0.1806E+01  0.5453E+00
     -3.233  0.2245E+01  0.6085E+00
     -3.205  0.2499E+01  0.6787E+00
     -3.177  0.2423E+01  0.7469E+00
     -3.149  0.2042E+01  0.8043E+00
     -3.120  0.1539E+01  0.8475E+00
     -3.092  0.1159E+01  0.8801E+00
     -3.064  0.1096E+01  0.9109E+00
     -3.036  0.1429E+01  0.9511E+00
     -3.008  0.2096E+01  0.1010E+01
     -2.980  0.2885E+01  0.1091E+01
     -2.952  0.3501E+01  0.1190E+01
     -2.924  0.3691E+01  0.1293E+01
     -2.896  0.3400E+01  0.1389E+01
     -2.867  0.2810E+01  0.1468E+01
     -2.839  0.2242E+01  0.1531E+01
     -2.811  0.1962E+01  0.1586E+01
     -2.783  0.2038E+01  0.1643E+01
     -2.755  0.2314E+01  0.1708E+01
     -2.727  0.2528E+01  0.1780E+01
     -2.699  0.2475E+01  0.1849E+01
     -2.671  0.2133E+01  0.1909E+01
     -2.642  0.1671E+01  0.1956E+01
     -2.614  0.1352E+01  0.1994E+01
     -2.586  0.1406E+01  0.2034E+01
     -2.558  0.1940E+01  0.2088E+01
     -2.530  0.2874E+01  0.2169E+01
     -2.502  0.3938E+01  0.2280E+01
     -2.474  0.4751E+01  0.2413E+01
     -2.446  0.5026E+01  0.2555E+01
     -2.418  0.4755E+01  0.2688E+01
     -2.389  0.4251E+01  0.2808E+01
     -2.361  0.3965E+01  0.2919E+01
     -2.333  0.4200E+01  0.3037E+01
     -2.305  0.4907E+01  0.3175E+01
     -2.277  0.5697E+01  0.3336E+01
     -2.249  0.6076E+01  0.3506E+01
     -2.221  0.5738E+01  0.3668E+01
     -2.193  0.4755E+01  0.3801E+01
     -2.165  0.3529E+01  0.3901E+01
     -2.136  0.2572E+01  0.3973E+01
     -2.108  0.2290E+01  0.4037E+01
     -2.080  0.2849E+01  0.4117E+01
     -2.052  0.4130E+01  0.4234E+01
     -2.024  0.5723E+01  0.4394E+01
     -1.996  0.7041E+01  0.4592E+01
     -1.968  0.7590E+01  0.4806E+01
     -1.940  0.7257E+01  0.5010E+01
     -1.911  0.6386E+01  0.5189E+01
     -1.883  0.5536E+01  0.5345E+01
     -1.855  0.5091E+01  0.5488E+01
     -1.827  0.5040E+01  0.5630E+01
     -1.799  0.5056E+01  0.5772E+01
     -1.771  0.4788E+01  0.5907E+01
     -1.743  0.4110E+01  0.6022E+01
     -1.715  0.3186E+01  0.6112E+01
     -1.687  0.2369E+01  0.6178E+01
     -1.658  0.2032E+01  0.6235E+01
     -1.630  0.2442E+01  0.6304E+01
     -1.602  0.3661E+01  0.6407E+01
     -1.574  0.5456E+01  0.6560E+01
     -1.546  0.7289E+01  0.6765E+01
     -1.518  0.8495E+01  0.7004E+01
     -1.490  0.8627E+01  0.7247E+01
     -1.462  0.7733E+01  0.7464E+01
     -1.434  0.6306E+01  0.7642E+01
     -1.405  0.4942E+01  0.7780E+01
     -1.377  0.3964E+01  0.7892E+01
     -1.349  0.3328E+01  0.7986E+01
     -1.321  0.2802E+01  0.8064E+01
     -1.293  0.2219E+01  0.8127E+01
     -1.265  0.1589E+01  0.8171E+01
     -1.237  0.1048E+01  0.8201E+01
     -1.209  0.7474E+00  0.8222E+01
     -1.180  0.7953E+00  0.8244E+01
     -1.152  0.1248E+01  0.8279E+01
     -1.124  0.2090E+01  0.8338E+01
     -1.096  0.3186E+01  0.8428E+01
     -1.068  0.4273E+01  0.8548E+01
     -1.040  0.5073E+01  0.8690E+01
     -1.012  0.5488E+01  0.8845E+01
     -0.984  0.5718E+01  0.9005E+01
     -0.956  0.6161E+01  0.9179E+01
     -0.927  0.7093E+01  0.9378E+01
     -0.899  0.8381E+01  0.9614E+01
     -0.871  0.9473E+01  0.9880E+01
     -0.843  0.9730E+01  0.1015E+02
     -0.815  0.8847E+01  0.1040E+02
     -0.787  0.7059E+01  0.1060E+02
     -0.759  0.4985E+01  0.1074E+02
     -0.731  0.3302E+01  0.1083E+02
     -0.702  0.2490E+01  0.1090E+02
     -0.674  0.2750E+01  0.1098E+02
     -0.646  0.4007E+01  0.1109E+02
     -0.618  0.5880E+01  0.1126E+02
     -0.590  0.7719E+01  0.1148E+02
     -0.562  0.8818E+01  0.1172E+02
     -0.534  0.8781E+01  0.1197E+02
     -0.506  0.7756E+01  0.1219E+02
     -0.478  0.6294E+01  0.1237E+02
     -0.449  0.4947E+01  0.1251E+02
     -0.421  0.3942E+01  0.1262E+02
     -0.393  0.3188E+01  0.1271E+02
     -0.365  0.2510E+01  0.1278E+02
     -0.337  0.1866E+01  0.1283E+02
     -0.309  0.1382E+01  0.1287E+02
     -0.281  0.1289E+01  0.1290E+02
     -0.253  0.1836E+01  0.1296E+02
     -0.225  0.3213E+01  0.1305E+02
     -0.196  0.5419E+01  0.1320E+02
     -0.168  0.8107E+01  0.1343E+02
     -0.140  0.1056E+02  0.1372E+02
     -0.112  0.1193E+02  0.1406E+02
     -0.084  0.1171E+02  0.1439E+02
     -0.056  0.1005E+02  0.1467E+02
     -0.028  0.7688E+01  0.1489E+02
      0.000  0.5498E+01  0.1504E+02
      0.029  0.4039E+01  0.1515E+02
      0.057  0.3365E+01  0.1525E+02
      0.085  0.3177E+01  0.1534E+02
      0.113  0.3115E+01  0.1543E+02
      0.141  0.2987E+01  0.1551E+02
      0.169  0.2807E+01  0.1559E+02
      0.197  0.2739E+01  0.1567E+02
      0.225  0.3004E+01  0.1575E+02
      0.253  0.3814E+01  0.1586E+02
      0.282  0.5253E+01  0.1601E+02
      0.310  0.7152E+01  0.1621E+02
      0.338  0.9080E+01  0.1646E+02
      0.366  0.1056E+02  0.1676E+02
      0.394  0.1134E+02  0.1708E+02
      0.422  0.1155E+02  0.1740E+02
      0.450  0.1146E+02  0.1772E+02
      0.478  0.1124E+02  0.1804E+02
      0.506  0.1086E+02  0.1835E+02
      0.535  0.1020E+02  0.1863E+02
      0.563  0.9282E+01  0.1889E+02
      0.591  0.8372E+01  0.1913E+02
      0.619  0.7895E+01  0.1935E+02
      0.647  0.8215E+01  0.1958E+02
      0.675  0.9419E+01  0.1985E+02
      0.703  0.1120E+02  0.2016E+02
      0.731  0.1292E+02  0.2052E+02
      0.760  0.1383E+02  0.2091E+02
      0.788  0.1340E+02  0.2129E+02
      0.816  0.1162E+02  0.2162E+02
      0.844  0.8974E+01  0.2187E+02
      0.872  0.6220E+01  0.2204E+02
      0.900  0.4014E+01  0.2216E+02
      0.928  0.2681E+01  0.2223E+02
      0.956  0.2204E+01  0.2229E+02
      0.984  0.2374E+01  0.2236E+02
      1.013  0.2941E+01  0.2244E+02
      1.041  0.3678E+01  0.2255E+02
      1.069  0.4386E+01  0.2267E+02
      1.097  0.4912E+01  0.2281E+02
      1.125  0.5210E+01  0.2295E+02
      1.153  0.5393E+01  0.2311E+02
      1.181  0.5683E+01  0.2327E+02
      1.209  0.6297E+01  0.2344E+02
      1.237  0.7342E+01  0.2365E+02
      1.266  0.8776E+01  0.2390E+02
      1.294  0.1042E+02  0.2419E+02
      1.322  0.1198E+02  0.2453E+02
      1.350  0.1319E+02  0.2490E+02
      1.378  0.1388E+02  0.2529E+02
      1.406  0.1398E+02  0.2568E+02
      1.434  0.1356E+02  0.2606E+02
      1.462  0.1279E+02  0.2642E+02
      1.491  0.1190E+02  0.2676E+02
      1.519  0.1114E+02  0.2707E+02
      1.547  0.1054E+02  0.2736E+02
      1.575  0.9985E+01  0.2765E+02
      1.603  0.9377E+01  0.2791E+02
      1.631  0.8760E+01  0.2816E+02
      1.659  0.8295E+01  0.2839E+02
      1.687  0.8079E+01  0.2862E+02
      1.715  0.8042E+01  0.2884E+02
      1.744  0.8042E+01  0.2907E+02
      1.772  0.8038E+01  0.2929E+02
      1.800  0.8143E+01  0.2952E+02
      1.828  0.8464E+01  0.2976E+02
      1.856  0.8898E+01  0.3001E+02
      1.884  0.9124E+01  0.3027E+02
      1.912  0.8822E+01  0.3052E+02
      1.940  0.7917E+01  0.3074E+02
      1.968  0.6604E+01  0.3092E+02
      1.997  0.5171E+01  0.3107E+02
      2.025  0.3845E+01  0.3118E+02
      2.053  0.2760E+01  0.3126E+02
      2.081  0.1995E+01  0.3131E+02
      2.109  0.1569E+01  0.3136E+02
      2.137  0.1412E+01  0.3139E+02
      2.165  0.1376E+01  0.3143E+02
      2.193  0.1305E+01  0.3147E+02
      2.222  0.1119E+01  0.3150E+02
      2.250  0.8391E+00  0.3153E+02
      2.278  0.5423E+00  0.3154E+02
      2.306  0.3007E+00  0.3155E+02
      2.334  0.1428E+00  0.3155E+02
      2.362  0.5801E-01  0.3155E+02
      2.390  0.2017E-01  0.3156E+02
      2.418  0.6035E-02  0.3156E+02
      2.446  0.1748E-02  0.3156E+02
      2.475  0.1462E-02  0.3156E+02
      2.503  0.4986E-02  0.3156E+02
      2.531  0.1837E-01  0.3156E+02
      2.559  0.5859E-01  0.3156E+02
      2.587  0.1599E+00  0.3156E+02
      2.615  0.3732E+00  0.3157E+02
      2.643  0.7453E+00  0.3159E+02
      2.671  0.1273E+01  0.3163E+02
      2.700  0.1861E+01  0.3168E+02
      2.728  0.2328E+01  0.3175E+02
      2.756  0.2490E+01  0.3182E+02
      2.784  0.2279E+01  0.3188E+02
      2.812  0.1785E+01  0.3193E+02
      2.840  0.1196E+01  0.3197E+02
      2.868  0.6853E+00  0.3198E+02
      2.896  0.3360E+00  0.3199E+02
      2.924  0.1409E+00  0.3200E+02
      2.953  0.5057E-01  0.3200E+02
      2.981  0.1552E-01  0.3200E+02
      3.009  0.4076E-02  0.3200E+02
      3.037  0.9155E-03  0.3200E+02
      3.065  0.1759E-03  0.3200E+02
      3.093  0.2890E-04  0.3200E+02
      3.121  0.4060E-05  0.3200E+02
      3.149  0.4880E-06  0.3200E+02
      3.177  0.5015E-07  0.3200E+02
      3.206  0.4407E-08  0.3200E+02
      3.234  0.3312E-09  0.3200E+02
      3.262  0.2128E-10  0.3200E+02
      3.290  0.1171E-11  0.3200E+02
      3.318  0.5265E-13  0.3200E+02
      3.346  0.3510E-14  0.3200E+02
      3.374  0.0000E+00  0.3200E+02
      3.402  0.0000E+00  0.3200E+02
      3.431  0.0000E+00  0.3200E+02
      3.459  0.0000E+00  0.3200E+02
      3.487  0.0000E+00  0.3200E+02
      3.515  0.0000E+00  0.3200E+02
      3.543  0.0000E+00  0.3200E+02
      3.571  0.0000E+00  0.3200E+02
      3.599  0.0000E+00  0.3200E+02
      3.627  0.0000E+00  0.3200E+02
      3.655  0.0000E+00  0.3200E+02
      3.684  0.0000E+00  0.3200E+02
      3.712  0.0000E+00  0.3200E+02
      3.740  0.0000E+00  0.3200E+02
