   12   12    1    1
  0.5566257E+02  0.4195452E-09  0.5933265E-09  0.3794783E-08  0.5000000E-15
  1.000000000000000E-004
  CAR 
 unknown system                          
     12      4     16
 
  0.0000000E+00  0.0000000E+00  0.0000000E+00  0.1111111E+00
    1       -3.694931   1.000000
    2       -3.416714   1.000000
    3       -2.962574   1.000000
    4       -2.300614   1.000000
    5       -1.498709   1.000000
    6       -0.570676   0.715915
    7        0.196461   0.000000
    8        0.332522   0.000000
    9        0.580876   0.000000
   10        0.816329   0.000000
   11        0.992756   0.000000
   12        1.097061   0.000000
   13        1.436293   0.000000
   14        1.543572   0.000000
   15        1.606206   0.000000
   16        2.171786   0.000000
 
  0.3333333E+00  0.0000000E+00  0.0000000E+00  0.2222222E+00
    1       -2.727850   1.000000
    2       -2.452686   1.000000
    3       -2.003843   1.000000
    4       -1.349372   1.000000
    5       -0.558170   0.653170
    6        0.085328   0.000000
    7        0.345761   0.000000
    8        0.354477   0.000000
    9        0.762154   0.000000
   10        1.091029   0.000000
   11        1.204982   0.000000
   12        1.326470   0.000000
   13        1.453690   0.000000
   14        1.672282   0.000000
   15        1.730233   0.000000
   16        1.866437   0.000000
 
  0.0000000E+00  0.3333333E+00 -0.2220446E-15  0.2222222E+00
    1       -3.209698   1.000000
    2       -2.933020   1.000000
    3       -2.481310   1.000000
    4       -1.823292   1.000000
    5       -1.774924   1.000000
    6       -1.503205   1.000000
    7       -1.060112   1.000000
    8       -1.024179   1.000000
    9       -0.413280   0.048945
   10       -0.110706   0.000000
   11        0.369145   0.000000
   12        0.665149   0.000000
   13        1.273342   0.000000
   14        1.757476   0.000000
   15        1.987286   0.000000
   16        2.739786   0.000000
 
  0.3333333E+00  0.3333333E+00 -0.2220446E-15  0.4444444E+00
    1       -2.249533   1.000000
    2       -1.976055   1.000000
    3       -1.530016   1.000000
    4       -0.880750   1.000000
    5       -0.838289   0.999993
    6       -0.571525   0.719971
    7       -0.140040   0.000000
    8       -0.096732   0.000000
    9        0.458509   0.000000
   10        0.529616   0.000000
   11        0.730014   0.000000
   12        0.783484   0.000000
   13        1.341053   0.000000
   14        1.420903   0.000000
   15        1.558248   0.000000
   16        1.885581   0.000000
