       N       E                     dE             d eps       ncg     rms          rms(c)
DAV:   1    -0.228355364481E+01   -0.22836E+01   -0.20130E+03   128   0.348E+02
DAV:   2    -0.149966140890E+02   -0.12713E+02   -0.11870E+02   168   0.410E+01
DAV:   3    -0.156409113280E+02   -0.64430E+00   -0.63548E+00   176   0.987E+00
DAV:   4    -0.156670639894E+02   -0.26153E-01   -0.26143E-01   200   0.207E+00
DAV:   5    -0.156680400326E+02   -0.97604E-03   -0.97601E-03   176   0.420E-01    0.116E+00
RMM:   6    -0.154296734806E+02    0.23837E+00   -0.22413E-02   138   0.314E-01    0.744E-01
RMM:   7    -0.152716117340E+02    0.15806E+00   -0.97749E-02   160   0.627E-01    0.284E-01
RMM:   8    -0.152568593976E+02    0.14752E-01   -0.12926E-02   135   0.389E-01    0.174E-01
RMM:   9    -0.152404429700E+02    0.16416E-01   -0.13631E-02   142   0.311E-01    0.156E-01
RMM:  10    -0.152295981095E+02    0.10845E-01   -0.86090E-03   145   0.296E-01    0.909E-02
RMM:  11    -0.152261277434E+02    0.34704E-02   -0.52249E-03   138   0.182E-01    0.814E-02
RMM:  12    -0.152383733763E+02   -0.12246E-01   -0.12707E-02   181   0.241E-01    0.892E-02
RMM:  13    -0.152372535879E+02    0.11198E-02   -0.72677E-04   135   0.884E-02    0.464E-02
RMM:  14    -0.152386461746E+02   -0.13926E-02   -0.10307E-03   150   0.865E-02    0.974E-03
RMM:  15    -0.152389213695E+02   -0.27519E-03   -0.20080E-04   153   0.551E-02    0.591E-03
RMM:  16    -0.152389365970E+02   -0.15227E-04   -0.30652E-05   150   0.262E-02    0.178E-03
RMM:  17    -0.152389379193E+02   -0.13224E-05   -0.95593E-06   158   0.142E-02    0.659E-04
RMM:  18    -0.152389383377E+02   -0.41836E-06   -0.39658E-06   174   0.758E-03    0.561E-04
RMM:  19    -0.152389383671E+02   -0.29401E-07   -0.44164E-07   178   0.246E-03    0.450E-04
RMM:  20    -0.152389383284E+02    0.38646E-07   -0.78817E-08   144   0.104E-03    0.124E-04
RMM:  21    -0.152389383240E+02    0.43875E-08   -0.17382E-08   126   0.537E-04
   1 F= -.15238938E+02 E0= -.15218300E+02  d E =-.412760E-01
