<?xml version="1.0" encoding="ISO-8859-1"?>
<modeling>
 <generator>
  <i name="program" type="string">vasp </i>
  <i name="version" type="string">6.2.1  </i>
  <i name="subversion" type="string">16May21 (build Dec 23 2021 00:35:04) complex                          parallel </i>
  <i name="platform" type="string">LinuxIFC </i>
  <i name="date" type="string">2023 03 08 </i>
  <i name="time" type="string">11:52:24 </i>
 </generator>
 <incar>
  <i type="string" name="PREC">Normal</i>
  <i type="string" name="ALGO">Fast</i>
  <i type="int" name="ISPIN">     0</i>
  <i name="AMIN">      0.01000000</i>
  <i type="int" name="NELM">   150</i>
  <i type="int" name="IBRION">    -1</i>
  <i name="EDIFF">      0.00000001</i>
  <i name="EDIFFG">     -0.01000000</i>
  <i type="int" name="NSW">     0</i>
  <i type="int" name="ISIF">     3</i>
  <i name="ENCUT">    400.00000000</i>
  <i type="string" name="LREAL">AUTO</i>
  <i type="int" name="ISMEAR">     0</i>
  <i name="SIGMA">      0.10000000</i>
  <i name="KSPACING">      0.50000000</i>
  <i type="logical" name="KGAMMA"> T  </i>
  <i type="int" name="NWRITE">     1</i>
  <i type="int" name="LMAXMIX">     6</i>
  <i type="logical" name="LWAVE"> F  </i>
  <i type="logical" name="LCHARG"> F  </i>
  <i type="logical" name="LASPH"> T  </i>
  <i type="string" name="GGA">PE</i>
  <i type="logical" name="LDIPOL"> T  </i>
  <i type="int" name="IDIPOL">     3</i>
  <v name="DIPOL">      0.25000000      0.25000000      0.50000000</v>
 </incar>
 <primitive_cell>
  <structure name="primitive_cell" >
   <crystal>
    <varray name="basis" >
     <v>       0.61440636      -3.58104398       0.00000505 </v>
     <v>       3.58104566      -0.61440804      -0.00000505 </v>
     <v>      -2.00334512       2.00334512      26.83316793 </v>
    </varray>
    <i name="volume">    333.97596079 </i>
    <varray name="rec_basis" >
     <v>      -0.04936434      -0.28771768       0.01779529 </v>
     <v>       0.28771761       0.04936427       0.01779529 </v>
     <v>       0.00000006       0.00000006       0.03726731 </v>
    </varray>
   </crystal>
   <varray name="positions" >
    <v>       0.11801951       0.11801931       0.22360386 </v>
    <v>       0.67081160       0.67081140       0.33416228 </v>
    <v>       0.22360369       0.22360349       0.44472070 </v>
    <v>       0.77639577       0.77639557       0.55527911 </v>
    <v>       0.32918786       0.32918766       0.66583753 </v>
    <v>       0.88197995       0.88197975       0.77639595 </v>
   </varray>
  </structure>
  <varray name="primitive_index" >
   <v type="int" >        1 </v>
   <v type="int" >        3 </v>
   <v type="int" >        5 </v>
   <v type="int" >        7 </v>
   <v type="int" >        9 </v>
   <v type="int" >       11 </v>
  </varray>
 </primitive_cell>
 <kpoints>
  <generation param="Gamma">
   <v type="int" name="divisions">       3        3        1 </v>
   <v name="usershift">      0.00000000       0.00000000       0.00000000 </v>
   <v name="genvec1">      0.33333333       0.00000000       0.00000000 </v>
   <v name="genvec2">      0.00000000       0.33333333       0.00000000 </v>
   <v name="genvec3">      0.00000000       0.00000000       1.00000000 </v>
   <v name="shift">      0.00000000       0.00000000       0.00000000 </v>
  </generation>
  <varray name="kpointlist" >
   <v>       0.00000000       0.00000000       0.00000000 </v>
   <v>       0.33333333       0.00000000       0.00000000 </v>
   <v>       0.00000000       0.33333333      -0.00000000 </v>
   <v>       0.33333333       0.33333333      -0.00000000 </v>
  </varray>
  <varray name="weights" >
   <v>       0.11111111 </v>
   <v>       0.22222222 </v>
   <v>       0.22222222 </v>
   <v>       0.44444444 </v>
  </varray>
 </kpoints>
 <parameters>
  <separator name="general" >
   <i type="string" name="SYSTEM">unknown system</i>
   <i type="logical" name="LCOMPAT"> F  </i>
  </separator>
  <separator name="electronic" >
   <i type="string" name="PREC">normal</i>
   <i name="ENMAX">    400.00000000</i>
   <i name="ENAUG">    250.69500000</i>
   <i name="EDIFF">      0.00000001</i>
   <i type="int" name="IALGO">    68</i>
   <i type="int" name="IWAVPR">    10</i>
   <i type="int" name="NBANDS">    16</i>
   <i type="int" name="NBANDSLOW">    -1</i>
   <i type="int" name="NBANDSHIGH">    -1</i>
   <i name="NELECT">     12.00000000</i>
   <i type="int" name="TURBO">     0</i>
   <i type="int" name="IRESTART">     0</i>
   <i type="int" name="NREBOOT">     0</i>
   <i type="int" name="NMIN">     0</i>
   <i name="EREF">      0.00000000</i>
   <separator name="electronic smearing" >
    <i type="int" name="ISMEAR">     0</i>
    <i name="SIGMA">      0.10000000</i>
    <i name="KSPACING">      0.50000000</i>
    <i type="logical" name="KGAMMA"> T  </i>
    <i type="logical" name="KBLOWUP"> T  </i>
   </separator>
   <separator name="electronic projectors" >
    <i type="logical" name="LREAL"> T  </i>
    <v name="ROPT">     -0.00050000</v>
    <i type="int" name="LMAXPAW">  -100</i>
    <i type="int" name="LMAXMIX">     6</i>
    <i type="logical" name="NLSPLINE"> F  </i>
   </separator>
   <separator name="electronic startup" >
    <i type="int" name="ISTART">     0</i>
    <i type="int" name="ICHARG">     2</i>
    <i type="int" name="INIWAV">     1</i>
   </separator>
   <separator name="electronic spin" >
    <i type="int" name="ISPIN">     1</i>
    <i type="logical" name="LNONCOLLINEAR"> F  </i>
    <v name="MAGMOM">      1.00000000      1.00000000      1.00000000      1.00000000      1.00000000      1.00000000      1.00000000      1.00000000      1.00000000      1.00000000      1.00000000      1.00000000</v>
    <i name="NUPDOWN">     -1.00000000</i>
    <i type="logical" name="LSORBIT"> F  </i>
    <v name="SAXIS">      0.00000000      0.00000000      1.00000000</v>
    <i type="logical" name="LSPIRAL"> F  </i>
    <v name="QSPIRAL">      0.00000000      0.00000000      0.00000000</v>
    <i type="logical" name="LZEROZ"> F  </i>
   </separator>
   <separator name="electronic exchange-correlation" >
    <i type="logical" name="LASPH"> T  </i>
    <i type="logical" name="LMETAGGA"> F  </i>
   </separator>
   <separator name="electronic convergence" >
    <i type="int" name="NELM">   150</i>
    <i type="int" name="NELMDL">    -5</i>
    <i type="int" name="NELMIN">     2</i>
    <i name="ENINI">    400.00000000</i>
    <separator name="electronic convergence detail" >
     <i type="logical" name="LDIAG"> T  </i>
     <i type="logical" name="LSUBROT"> F  </i>
     <i name="WEIMIN">      0.00000000</i>
     <i name="EBREAK">      0.00000000</i>
     <i name="DEPER">      0.30000000</i>
     <i type="int" name="NRMM">     4</i>
     <i name="TIME">      0.40000000</i>
    </separator>
   </separator>
   <separator name="electronic mixer" >
    <i name="AMIX">      0.40000000</i>
    <i name="BMIX">      1.00000000</i>
    <i name="AMIN">      0.01000000</i>
    <i name="AMIX_MAG">      1.60000000</i>
    <i name="BMIX_MAG">      1.00000000</i>
    <separator name="electronic mixer details" >
     <i type="int" name="IMIX">     4</i>
     <i type="logical" name="MIXFIRST"> F  </i>
     <i type="int" name="MAXMIX">   -45</i>
     <i name="WC">    100.00000000</i>
     <i type="int" name="INIMIX">     1</i>
     <i type="int" name="MIXPRE">     1</i>
     <i type="int" name="MREMOVE">     5</i>
    </separator>
   </separator>
   <separator name="electronic dipolcorrection" >
    <i type="logical" name="LDIPOL"> T  </i>
    <i type="logical" name="LMONO"> F  </i>
    <i type="int" name="IDIPOL">     3</i>
    <i name="EPSILON">      1.00000000</i>
    <v name="DIPOL">      0.25000000      0.25000000      0.50000000</v>
    <i name="EFIELD">      0.00000000</i>
   </separator>
  </separator>
  <separator name="grids" >
   <i type="int" name="NGX">    24</i>
   <i type="int" name="NGY">    30</i>
   <i type="int" name="NGZ">   192</i>
   <i type="int" name="NGXF">    48</i>
   <i type="int" name="NGYF">    60</i>
   <i type="int" name="NGZF">   384</i>
   <i type="logical" name="ADDGRID"> F  </i>
  </separator>
  <separator name="ionic" >
   <i type="int" name="NSW">     0</i>
   <i type="int" name="IBRION">    -1</i>
   <i type="int" name="MDALGO">     0</i>
   <i type="int" name="ISIF">     3</i>
   <i name="PSTRESS">      0.00000000</i>
   <i name="EDIFFG">     -0.01000000</i>
   <i type="int" name="NFREE">     0</i>
   <i name="POTIM">      0.50000000</i>
   <i name="SMASS">     -3.00000000</i>
   <i name="SCALEE">      1.00000000</i>
  </separator>
  <separator name="ionic md" >
   <i name="TEBEG">      0.00010000</i>
   <i name="TEEND">      0.00010000</i>
   <i type="int" name="NBLOCK">     1</i>
   <i type="int" name="KBLOCK">     1</i>
   <i type="int" name="NPACO">   256</i>
   <i name="APACO">     16.00000000</i>
  </separator>
  <separator name="symmetry" >
   <i type="int" name="ISYM">     2</i>
   <i name="SYMPREC">      0.00001000</i>
  </separator>
  <separator name="dos" >
   <i type="int" name="LORBIT">     0</i>
   <v name="RWIGS">     -1.00000000</v>
   <i type="int" name="NEDOS">   301</i>
   <i name="EMIN">     10.00000000</i>
   <i name="EMAX">    -10.00000000</i>
   <i name="EFERMI">      0.00000000</i>
  </separator>
  <separator name="writing" >
   <i type="int" name="NWRITE">     1</i>
   <i type="logical" name="LWAVE"> F  </i>
   <i type="logical" name="LDOWNSAMPLE"> F  </i>
   <i type="logical" name="LCHARG"> F  </i>
   <i type="logical" name="LPARD"> F  </i>
   <i type="logical" name="LVTOT"> F  </i>
   <i type="logical" name="LVHAR"> F  </i>
   <i type="logical" name="LELF"> F  </i>
   <i type="logical" name="LOPTICS"> F  </i>
   <v name="STM">      0.00000000      0.00000000      0.00000000      0.00000000      0.00000000      0.00000000      0.00000000</v>
  </separator>
  <separator name="performance" >
   <i type="int" name="NPAR">     8</i>
   <i type="int" name="NSIM">     4</i>
   <i type="int" name="NBLK">    -1</i>
   <i type="logical" name="LPLANE"> T  </i>
   <i type="logical" name="LSCALAPACK"> T  </i>
   <i type="logical" name="LSCAAWARE"> F  </i>
   <i type="logical" name="LSCALU"> F  </i>
   <i type="logical" name="LASYNC"> F  </i>
   <i type="logical" name="LORBITALREAL"> F  </i>
  </separator>
  <separator name="miscellaneous" >
   <i type="int" name="IDIOT">     3</i>
   <i type="int" name="PHON_NSTRUCT">    -1</i>
   <i type="logical" name="LMUSIC"> F  </i>
   <v name="POMASS">     22.99000000</v>
   <v name="DARWINR">      0.00000000</v>
   <v name="DARWINV">      1.00000000</v>
   <i type="logical" name="LCORR"> T  </i>
  </separator>
  <i type="logical" name="GGA_COMPAT"> T  </i>
  <i type="logical" name="LBERRY"> F  </i>
  <i type="int" name="ICORELEVEL">     0</i>
  <i type="logical" name="LDAU"> F  </i>
  <i type="int" name="I_CONSTRAINED_M">     0</i>
  <separator name="electronic exchange-correlation" >
   <i type="string" name="GGA">PE</i>
   <i type="int" name="VOSKOWN">     0</i>
   <i type="logical" name="LHFCALC"> F  </i>
   <i type="string" name="PRECFOCK"></i>
   <i type="logical" name="LSYMGRAD"> F  </i>
   <i type="logical" name="LHFONE"> F  </i>
   <i type="logical" name="LRHFCALC"> F  </i>
   <i type="logical" name="LTHOMAS"> F  </i>
   <i type="logical" name="LMODELHF"> F  </i>
   <i type="logical" name="LFOCKACE"> F  </i>
   <i name="ENCUT4O">     -1.00000000</i>
   <i type="int" name="EXXOEP">     0</i>
   <i type="int" name="FOURORBIT">     0</i>
   <i name="AEXX">      0.00000000</i>
   <i name="HFALPHA">      0.00000000</i>
   <i name="MCALPHA">      0.00000000</i>
   <i name="ALDAX">      1.00000000</i>
   <i name="AGGAX">      1.00000000</i>
   <i name="ALDAC">      1.00000000</i>
   <i name="AGGAC">      1.00000000</i>
   <i type="int" name="NKREDX">     1</i>
   <i type="int" name="NKREDY">     1</i>
   <i type="int" name="NKREDZ">     1</i>
   <i type="logical" name="SHIFTRED"> F  </i>
   <i type="logical" name="ODDONLY"> F  </i>
   <i type="logical" name="EVENONLY"> F  </i>
   <i type="int" name="LMAXFOCK">     0</i>
   <i type="int" name="NMAXFOCKAE">     0</i>
   <i type="logical" name="LFOCKAEDFT"> F  </i>
   <i name="HFSCREEN">      0.00000000</i>
   <i name="HFSCREENC">      0.00000000</i>
   <i type="int" name="NBANDSGWLOW">     0</i>
  </separator>
  <separator name="vdW DFT" >
   <i type="logical" name="LUSE_VDW"> F  </i>
   <i name="Zab_VDW">     -0.84910000</i>
   <i name="PARAM1">      0.12340000</i>
   <i name="PARAM2">      1.00000000</i>
   <i name="PARAM3">      0.00000000</i>
  </separator>
  <separator name="model GW" >
   <i type="int" name="MODEL_GW">     0</i>
   <i name="MODEL_EPS0">     33.39753927</i>
   <i name="MODEL_ALPHA">      1.00000000</i>
  </separator>
  <separator name="linear response parameters" >
   <i type="logical" name="LEPSILON"> F  </i>
   <i type="logical" name="LRPA"> F  </i>
   <i type="logical" name="LNABLA"> F  </i>
   <i type="logical" name="LVEL"> F  </i>
   <i type="int" name="KINTER">     0</i>
   <i name="CSHIFT">      0.10000000</i>
   <i name="OMEGAMAX">     -1.00000000</i>
   <i name="DEG_THRESHOLD">      0.00200000</i>
   <i name="RTIME">     -0.10000000</i>
   <i name="WPLASMAI">      0.00000000</i>
   <v name="DFIELD">      0.00000000      0.00000000      0.00000000</v>
   <v name="WPLASMA">      0.00000000      0.00000000      0.00000000      0.00000000      0.00000000      0.00000000      0.00000000      0.00000000      0.00000000</v>
  </separator>
  <separator name="orbital magnetization" >
   <i type="logical" name="NUCIND"> F  </i>
   <v name="MAGPOS">      0.00000000      0.00000000      0.00000000</v>
   <i type="logical" name="LNICSALL"> T  </i>
   <i type="logical" name="ORBITALMAG"> F  </i>
   <i type="logical" name="LMAGBLOCH"> F  </i>
   <i type="logical" name="LCHIMAG"> F  </i>
   <i type="logical" name="LGAUGE"> T  </i>
   <i type="int" name="MAGATOM">     0</i>
   <v name="MAGDIPOL">      0.00000000      0.00000000      0.00000000</v>
   <v name="AVECCONST">      0.00000000      0.00000000      0.00000000</v>
  </separator>
  <separator name="response functions" >
   <i type="logical" name="LFINITE_TEMPERATURE"> F  </i>
   <i type="logical" name="LADDER"> F  </i>
   <i type="logical" name="LRPAFORCE"> F  </i>
   <i type="logical" name="LFXC"> F  </i>
   <i type="logical" name="LHARTREE"> T  </i>
   <i type="int" name="IBSE">     0</i>
   <v type="int" name="KPOINT">    -1     0     0     0</v>
   <i type="logical" name="LTCTC"> F  </i>
   <i type="logical" name="LTCTE"> F  </i>
   <i type="logical" name="LTETE"> F  </i>
   <i type="logical" name="LTRIPLET"> F  </i>
   <i type="logical" name="LFXCEPS"> F  </i>
   <i type="logical" name="LFXHEG"> F  </i>
   <i type="int" name="NATURALO">     2</i>
   <i type="logical" name="LHOLEGF"> F  </i>
   <i type="logical" name="L2ORDER"> F  </i>
   <i type="logical" name="LDMP1"> F  </i>
   <i type="logical" name="LMP2LT"> F  </i>
   <i type="logical" name="LSMP2LT"> F  </i>
   <i type="logical" name="LGWLF"> F  </i>
   <i name="ENCUTGW">     -2.00000000</i>
   <i name="ENCUTGWSOFT">     -2.00000000</i>
   <i name="ENCUTLF">     -1.00000000</i>
   <i type="logical" name="LESF_SPLINES"> F  </i>
   <i type="int" name="LMAXMP2">    -1</i>
   <i name="SCISSOR">      0.00000000</i>
   <i type="int" name="NOMEGA">     0</i>
   <i type="int" name="NOMEGAR">     0</i>
   <i type="int" name="NBANDSGW">    -1</i>
   <i type="int" name="NBANDSO">    -1</i>
   <i type="int" name="NBANDSV">    -1</i>
   <i type="int" name="NELM">   150</i>
   <i type="int" name="NELMHF">     1</i>
   <i type="int" name="DIM">     3</i>
   <i type="int" name="IESPILON">     4</i>
   <i type="int" name="ANTIRES">     0</i>
   <i name="OMEGAMAX">    -30.00000000</i>
   <i name="OMEGAMIN">    -30.00000000</i>
   <i name="OMEGATL">   -200.00000000</i>
   <i type="int" name="OMEGAGRID">     0</i>
   <i name="CSHIFT">     -0.10000000</i>
   <i type="logical" name="LSELFENERGY"> F  </i>
   <i type="logical" name="LSPECTRAL"> F  </i>
   <i type="logical" name="LSPECTRALGW"> F  </i>
   <i type="logical" name="LSINGLES"> F  </i>
   <i type="logical" name="LFERMIGW"> F  </i>
   <i type="logical" name="ODDONLYGW"> F  </i>
   <i type="logical" name="EVENONLYGW"> F  </i>
   <i type="int" name="NKREDLFX">     1</i>
   <i type="int" name="NKREDLFY">     1</i>
   <i type="int" name="NKREDLFZ">     1</i>
   <i type="int" name="MAXMEM">  2800</i>
   <i type="int" name="TELESCOPE">     0</i>
   <i type="int" name="NTAUPAR">    -1</i>
   <i type="int" name="NOMEGAPAR">    -1</i>
   <i name="DAMP_NEWTON">      0.80000001</i>
   <i name="LAMBDA">      1.00000000</i>
  </separator>
  <separator name="External order field" >
   <i name="OFIELD_KAPPA">      0.00000000</i>
   <v name="OFIELD_K">      0.00000000      0.00000000      0.00000000</v>
   <i name="OFIELD_Q6_NEAR">      0.00000000</i>
   <i name="OFIELD_Q6_FAR">      0.00000000</i>
   <i name="OFIELD_A">      0.00000000</i>
  </separator>
 </parameters>
 <atominfo>
  <atoms>      12 </atoms>
  <types>       1 </types>
  <array name="atoms" >
   <dimension dim="1">ion</dimension>
   <field type="string">element</field>
   <field type="int">atomtype</field>
   <set>
    <rc><c>Na</c><c>   1</c></rc>
    <rc><c>Na</c><c>   1</c></rc>
    <rc><c>Na</c><c>   1</c></rc>
    <rc><c>Na</c><c>   1</c></rc>
    <rc><c>Na</c><c>   1</c></rc>
    <rc><c>Na</c><c>   1</c></rc>
    <rc><c>Na</c><c>   1</c></rc>
    <rc><c>Na</c><c>   1</c></rc>
    <rc><c>Na</c><c>   1</c></rc>
    <rc><c>Na</c><c>   1</c></rc>
    <rc><c>Na</c><c>   1</c></rc>
    <rc><c>Na</c><c>   1</c></rc>
   </set>
  </array>
  <array name="atomtypes" >
   <dimension dim="1">type</dimension>
   <field type="int">atomspertype</field>
   <field type="string">element</field>
   <field>mass</field>
   <field>valence</field>
   <field type="string">pseudopotential</field>
   <set>
    <rc><c>  12</c><c>Na</c><c>     22.99000000</c><c>      1.00000000</c><c>  PAW_PBE Na 08Apr2002                  </c></rc>
   </set>
  </array>
 </atominfo>
 <structure name="initialpos" >
  <crystal>
   <varray name="basis" >
    <v>      -2.96663258      -2.96663258       0.00000000 </v>
    <v>       4.19545202      -4.19545202       0.00000000 </v>
    <v>      18.97391500     -18.97391500      26.83316793 </v>
   </varray>
   <i name="volume">    667.95078532 </i>
   <varray name="rec_basis" >
    <v>      -0.16854126      -0.16854126       0.00000000 </v>
    <v>       0.11917667      -0.11917667      -0.16854126 </v>
    <v>       0.00000000       0.00000000       0.03726731 </v>
   </varray>
  </crystal>
  <varray name="positions" >
   <v>       0.00000010       0.00000010       0.22360386 </v>
   <v>       0.50000095       0.49999905       0.22360405 </v>
   <v>       0.00000010       0.00000010       0.33416228 </v>
   <v>       0.50000095       0.49999905       0.33416247 </v>
   <v>       0.00000010       0.00000010       0.44472070 </v>
   <v>       0.50000095       0.49999905       0.44472089 </v>
   <v>       0.00000010       0.00000010       0.55527911 </v>
   <v>       0.50000095       0.49999905       0.55527930 </v>
   <v>       0.00000010       0.00000010       0.66583753 </v>
   <v>       0.50000095       0.49999905       0.66583772 </v>
   <v>       0.00000010       0.00000010       0.77639595 </v>
   <v>       0.50000095       0.49999905       0.77639614 </v>
  </varray>
 </structure>
 <calculation>
  <scstep>
   <time name="dav">    0.08    0.09</time>
   <time name="total">    0.14    0.15</time>
   <dipole>
    <v name="dipole">      0.00000000      -0.00000000       0.00000000 </v>
    <i name="Tr[quadrupol]">    -26.91468672 </i>
    <i name="Echarged">      0.00000000 </i>
    <i name="Edipol_quadrupol">      0.00000000 </i>
    <i name="Eion">      0.00000000 </i>
   </dipole>
   <energy>
    <i name="alphaZ">     -3.94866011 </i>
    <i name="ewald">     65.06441715 </i>
    <i name="hartreedc">   -122.97455557 </i>
    <i name="XCdc">   -439.18459075 </i>
    <i name="pawpsdc">    478.51375300 </i>
    <i name="pawaedc">    -28.41183042 </i>
    <i name="eentropy">     -0.02969412 </i>
    <i name="bandstr">    -13.20898623 </i>
    <i name="atom">     61.89659342 </i>
    <i name="e_fr_energy">     -2.28355364 </i>
    <i name="e_wo_entrp">     -2.25385952 </i>
    <i name="e_0_energy">     -2.26870658 </i>
   </energy>
  </scstep>
  <scstep>
   <time name="dav">    0.19    0.20</time>
   <time name="total">    0.20    0.20</time>
   <dipole>
    <v name="dipole">      0.00000000      -0.00000000       0.00000000 </v>
    <i name="Tr[quadrupol]">    -26.91468672 </i>
    <i name="Echarged">      0.00000000 </i>
    <i name="Edipol_quadrupol">      0.00000000 </i>
    <i name="Eion">      0.00000000 </i>
   </dipole>
   <energy>
    <i name="e_fr_energy">    -14.99661409 </i>
    <i name="e_wo_entrp">    -14.97323034 </i>
    <i name="e_0_energy">    -14.98492221 </i>
   </energy>
  </scstep>
  <scstep>
   <time name="dav">    0.06    0.06</time>
   <time name="total">    0.06    0.06</time>
   <dipole>
    <v name="dipole">      0.00000000      -0.00000000       0.00000000 </v>
    <i name="Tr[quadrupol]">    -26.91468672 </i>
    <i name="Echarged">      0.00000000 </i>
    <i name="Edipol_quadrupol">      0.00000000 </i>
    <i name="Eion">      0.00000000 </i>
   </dipole>
   <energy>
    <i name="e_fr_energy">    -15.64091133 </i>
    <i name="e_wo_entrp">    -15.62167038 </i>
    <i name="e_0_energy">    -15.63129085 </i>
   </energy>
  </scstep>
  <scstep>
   <time name="dav">    0.07    0.07</time>
   <time name="total">    0.07    0.07</time>
   <dipole>
    <v name="dipole">      0.00000000      -0.00000000       0.00000000 </v>
    <i name="Tr[quadrupol]">    -26.91468672 </i>
    <i name="Echarged">      0.00000000 </i>
    <i name="Edipol_quadrupol">      0.00000000 </i>
    <i name="Eion">      0.00000000 </i>
   </dipole>
   <energy>
    <i name="e_fr_energy">    -15.66706399 </i>
    <i name="e_wo_entrp">    -15.64781678 </i>
    <i name="e_0_energy">    -15.65744038 </i>
   </energy>
  </scstep>
  <scstep>
   <time name="dav">    0.06    0.06</time>
   <time name="total">    0.08    0.08</time>
   <dipole>
    <v name="dipole">      0.00000000      -0.00000000       0.00000000 </v>
    <i name="Tr[quadrupol]">    -26.91468672 </i>
    <i name="Echarged">      0.00000000 </i>
    <i name="Edipol_quadrupol">      0.00000000 </i>
    <i name="Eion">      0.00000000 </i>
   </dipole>
   <energy>
    <i name="e_fr_energy">    -15.66804003 </i>
    <i name="e_wo_entrp">    -15.64880573 </i>
    <i name="e_0_energy">    -15.65842288 </i>
   </energy>
  </scstep>
  <scstep>
   <time name="diag">    0.02    0.02</time>
   <time name="diis">    0.01    0.01</time>
   <time name="orth">    0.00    0.00</time>
   <time name="total">    0.11    0.11</time>
   <dipole>
    <v name="dipole">      0.00000000      -0.00000000       0.00000000 </v>
    <i name="Tr[quadrupol]">    -27.51856078 </i>
    <i name="Echarged">      0.00000000 </i>
    <i name="Edipol_quadrupol">      0.00000000 </i>
    <i name="Eion">      0.00000000 </i>
   </dipole>
   <energy>
    <i name="e_fr_energy">    -15.42967348 </i>
    <i name="e_wo_entrp">    -15.40633616 </i>
    <i name="e_0_energy">    -15.41800482 </i>
   </energy>
  </scstep>
  <scstep>
   <time name="diag">    0.02    0.02</time>
   <time name="diis">    0.01    0.01</time>
   <time name="orth">    0.00    0.00</time>
   <time name="total">    0.11    0.11</time>
   <dipole>
    <v name="dipole">      0.00000000      -0.00000000       0.00000000 </v>
    <i name="Tr[quadrupol]">    -29.15181773 </i>
    <i name="Echarged">      0.00000000 </i>
    <i name="Edipol_quadrupol">      0.00000000 </i>
    <i name="Eion">      0.00000000 </i>
   </dipole>
   <energy>
    <i name="e_fr_energy">    -15.27161173 </i>
    <i name="e_wo_entrp">    -15.23085122 </i>
    <i name="e_0_energy">    -15.25123148 </i>
   </energy>
  </scstep>
  <scstep>
   <time name="diag">    0.02    0.02</time>
   <time name="diis">    0.01    0.01</time>
   <time name="orth">    0.00    0.00</time>
   <time name="total">    0.10    0.10</time>
   <dipole>
    <v name="dipole">      0.00000000      -0.00000000       0.00000000 </v>
    <i name="Tr[quadrupol]">    -30.34582322 </i>
    <i name="Echarged">      0.00000000 </i>
    <i name="Edipol_quadrupol">      0.00000000 </i>
    <i name="Eion">      0.00000000 </i>
   </dipole>
   <energy>
    <i name="e_fr_energy">    -15.25685940 </i>
    <i name="e_wo_entrp">    -15.21644334 </i>
    <i name="e_0_energy">    -15.23665137 </i>
   </energy>
  </scstep>
  <scstep>
   <time name="diag">    0.02    0.02</time>
   <time name="diis">    0.01    0.01</time>
   <time name="orth">    0.00    0.00</time>
   <time name="total">    0.10    0.10</time>
   <dipole>
    <v name="dipole">      0.00000000      -0.00000000       0.00000000 </v>
    <i name="Tr[quadrupol]">    -32.50898649 </i>
    <i name="Echarged">      0.00000000 </i>
    <i name="Edipol_quadrupol">      0.00000000 </i>
    <i name="Eion">      0.00000000 </i>
   </dipole>
   <energy>
    <i name="e_fr_energy">    -15.24044297 </i>
    <i name="e_wo_entrp">    -15.19916418 </i>
    <i name="e_0_energy">    -15.21980357 </i>
   </energy>
  </scstep>
  <scstep>
   <time name="diag">    0.02    0.02</time>
   <time name="diis">    0.01    0.01</time>
   <time name="orth">    0.00    0.00</time>
   <time name="total">    0.10    0.10</time>
   <dipole>
    <v name="dipole">      0.00000000      -0.00000000       0.00000000 </v>
    <i name="Tr[quadrupol]">    -37.25291480 </i>
    <i name="Echarged">      0.00000000 </i>
    <i name="Edipol_quadrupol">      0.00000000 </i>
    <i name="Eion">      0.00000000 </i>
   </dipole>
   <energy>
    <i name="e_fr_energy">    -15.22959811 </i>
    <i name="e_wo_entrp">    -15.18871112 </i>
    <i name="e_0_energy">    -15.20915461 </i>
   </energy>
  </scstep>
  <scstep>
   <time name="diag">    0.03    0.03</time>
   <time name="diis">    0.01    0.01</time>
   <time name="orth">    0.00    0.00</time>
   <time name="total">    0.11    0.11</time>
   <dipole>
    <v name="dipole">      0.00000000      -0.00000000       0.00000000 </v>
    <i name="Tr[quadrupol]">    -39.07103134 </i>
    <i name="Echarged">      0.00000000 </i>
    <i name="Edipol_quadrupol">      0.00000000 </i>
    <i name="Eion">      0.00000000 </i>
   </dipole>
   <energy>
    <i name="e_fr_energy">    -15.22612774 </i>
    <i name="e_wo_entrp">    -15.18494387 </i>
    <i name="e_0_energy">    -15.20553580 </i>
   </energy>
  </scstep>
  <scstep>
   <time name="diag">    0.02    0.02</time>
   <time name="diis">    0.02    0.02</time>
   <time name="orth">    0.00    0.00</time>
   <time name="total">    0.11    0.11</time>
   <dipole>
    <v name="dipole">      0.00000000      -0.00000000       0.00000000 </v>
    <i name="Tr[quadrupol]">    -42.57837989 </i>
    <i name="Echarged">      0.00000000 </i>
    <i name="Edipol_quadrupol">      0.00000000 </i>
    <i name="Eion">      0.00000000 </i>
   </dipole>
   <energy>
    <i name="e_fr_energy">    -15.23837338 </i>
    <i name="e_wo_entrp">    -15.19638497 </i>
    <i name="e_0_energy">    -15.21737917 </i>
   </energy>
  </scstep>
  <scstep>
   <time name="diag">    0.02    0.02</time>
   <time name="diis">    0.01    0.01</time>
   <time name="orth">    0.00    0.00</time>
   <time name="total">    0.10    0.10</time>
   <dipole>
    <v name="dipole">      0.00000000      -0.00000000       0.00000000 </v>
    <i name="Tr[quadrupol]">    -42.11863414 </i>
    <i name="Echarged">      0.00000000 </i>
    <i name="Edipol_quadrupol">      0.00000000 </i>
    <i name="Eion">      0.00000000 </i>
   </dipole>
   <energy>
    <i name="e_fr_energy">    -15.23725359 </i>
    <i name="e_wo_entrp">    -15.19550131 </i>
    <i name="e_0_energy">    -15.21637745 </i>
   </energy>
  </scstep>
  <scstep>
   <time name="diag">    0.02    0.03</time>
   <time name="diis">    0.02    0.03</time>
   <time name="orth">    0.00    0.01</time>
   <time name="total">    0.12    0.14</time>
   <dipole>
    <v name="dipole">      0.00000000      -0.00000000       0.00000000 </v>
    <i name="Tr[quadrupol]">    -42.10140972 </i>
    <i name="Echarged">      0.00000000 </i>
    <i name="Edipol_quadrupol">      0.00000000 </i>
    <i name="Eion">      0.00000000 </i>
   </dipole>
   <energy>
    <i name="e_fr_energy">    -15.23864617 </i>
    <i name="e_wo_entrp">    -15.19747036 </i>
    <i name="e_0_energy">    -15.21805827 </i>
   </energy>
  </scstep>
  <scstep>
   <time name="diag">    0.02    0.03</time>
   <time name="diis">    0.01    0.02</time>
   <time name="orth">    0.00    0.00</time>
   <time name="total">    0.11    0.14</time>
   <dipole>
    <v name="dipole">      0.00000000      -0.00000000       0.00000000 </v>
    <i name="Tr[quadrupol]">    -42.00218705 </i>
    <i name="Echarged">      0.00000000 </i>
    <i name="Edipol_quadrupol">      0.00000000 </i>
    <i name="Eion">      0.00000000 </i>
   </dipole>
   <energy>
    <i name="e_fr_energy">    -15.23892137 </i>
    <i name="e_wo_entrp">    -15.19773317 </i>
    <i name="e_0_energy">    -15.21832727 </i>
   </energy>
  </scstep>
  <scstep>
   <time name="diag">    0.02    0.02</time>
   <time name="diis">    0.01    0.01</time>
   <time name="orth">    0.00    0.00</time>
   <time name="total">    0.10    0.10</time>
   <dipole>
    <v name="dipole">      0.00000000      -0.00000000       0.00000000 </v>
    <i name="Tr[quadrupol]">    -42.12538473 </i>
    <i name="Echarged">      0.00000000 </i>
    <i name="Edipol_quadrupol">      0.00000000 </i>
    <i name="Eion">      0.00000000 </i>
   </dipole>
   <energy>
    <i name="e_fr_energy">    -15.23893660 </i>
    <i name="e_wo_entrp">    -15.19765892 </i>
    <i name="e_0_energy">    -15.21829776 </i>
   </energy>
  </scstep>
  <scstep>
   <time name="diag">    0.02    0.02</time>
   <time name="diis">    0.01    0.01</time>
   <time name="orth">    0.00    0.00</time>
   <time name="total">    0.10    0.11</time>
   <dipole>
    <v name="dipole">      0.00000000      -0.00000000       0.00000000 </v>
    <i name="Tr[quadrupol]">    -42.05716991 </i>
    <i name="Echarged">      0.00000000 </i>
    <i name="Edipol_quadrupol">      0.00000000 </i>
    <i name="Eion">      0.00000000 </i>
   </dipole>
   <energy>
    <i name="e_fr_energy">    -15.23893792 </i>
    <i name="e_wo_entrp">    -15.19766733 </i>
    <i name="e_0_energy">    -15.21830262 </i>
   </energy>
  </scstep>
  <scstep>
   <time name="diag">    0.02    0.02</time>
   <time name="diis">    0.01    0.01</time>
   <time name="orth">    0.00    0.00</time>
   <time name="total">    0.11    0.11</time>
   <dipole>
    <v name="dipole">      0.00000000      -0.00000000       0.00000000 </v>
    <i name="Tr[quadrupol]">    -42.06177872 </i>
    <i name="Echarged">      0.00000000 </i>
    <i name="Edipol_quadrupol">      0.00000000 </i>
    <i name="Eion">      0.00000000 </i>
   </dipole>
   <energy>
    <i name="e_fr_energy">    -15.23893834 </i>
    <i name="e_wo_entrp">    -15.19766398 </i>
    <i name="e_0_energy">    -15.21830116 </i>
   </energy>
  </scstep>
  <scstep>
   <time name="diag">    0.02    0.02</time>
   <time name="diis">    0.02    0.02</time>
   <time name="orth">    0.00    0.00</time>
   <time name="total">    0.11    0.11</time>
   <dipole>
    <v name="dipole">      0.00000000      -0.00000000       0.00000000 </v>
    <i name="Tr[quadrupol]">    -42.06168898 </i>
    <i name="Echarged">      0.00000000 </i>
    <i name="Edipol_quadrupol">      0.00000000 </i>
    <i name="Eion">      0.00000000 </i>
   </dipole>
   <energy>
    <i name="e_fr_energy">    -15.23893837 </i>
    <i name="e_wo_entrp">    -15.19766414 </i>
    <i name="e_0_energy">    -15.21830125 </i>
   </energy>
  </scstep>
  <scstep>
   <time name="diag">    0.02    0.02</time>
   <time name="diis">    0.01    0.01</time>
   <time name="orth">    0.00    0.00</time>
   <time name="total">    0.10    0.10</time>
   <dipole>
    <v name="dipole">      0.00000000      -0.00000000       0.00000000 </v>
    <i name="Tr[quadrupol]">    -42.06610085 </i>
    <i name="Echarged">      0.00000000 </i>
    <i name="Edipol_quadrupol">      0.00000000 </i>
    <i name="Eion">      0.00000000 </i>
   </dipole>
   <energy>
    <i name="e_fr_energy">    -15.23893833 </i>
    <i name="e_wo_entrp">    -15.19766286 </i>
    <i name="e_0_energy">    -15.21830060 </i>
   </energy>
  </scstep>
  <scstep>
   <time name="diag">    0.02    0.02</time>
   <time name="diis">    0.01    0.01</time>
   <time name="orth">    0.00    0.00</time>
   <time name="total">    0.09    0.09</time>
   <dipole>
    <v name="dipole">      0.00000000      -0.00000000       0.00000000 </v>
    <i name="Tr[quadrupol]">    -42.06797005 </i>
    <i name="Echarged">      0.00000000 </i>
    <i name="Edipol_quadrupol">      0.00000000 </i>
    <i name="Eion">      0.00000000 </i>
   </dipole>
   <energy>
    <i name="alphaZ">     -3.94866011 </i>
    <i name="ewald">     65.06441715 </i>
    <i name="hartreedc">   -128.71479976 </i>
    <i name="XCdc">   -438.39560314 </i>
    <i name="pawpsdc">    473.67440123 </i>
    <i name="pawaedc">    -23.59997449 </i>
    <i name="eentropy">     -0.04127599 </i>
    <i name="bandstr">    -21.17403662 </i>
    <i name="atom">     61.89659342 </i>
    <i name="e_fr_energy">    -15.23893832 </i>
    <i name="e_wo_entrp">    -15.19766233 </i>
    <i name="e_0_energy">    -15.21830033 </i>
   </energy>
  </scstep>
  <structure>
   <crystal>
    <varray name="basis" >
     <v>      -2.96663258      -2.96663258       0.00000000 </v>
     <v>       4.19545202      -4.19545202       0.00000000 </v>
     <v>      18.97391500     -18.97391500      26.83316793 </v>
    </varray>
    <i name="volume">    667.95078532 </i>
    <varray name="rec_basis" >
     <v>      -0.16854126      -0.16854126       0.00000000 </v>
     <v>       0.11917667      -0.11917667      -0.16854126 </v>
     <v>       0.00000000       0.00000000       0.03726731 </v>
    </varray>
   </crystal>
   <varray name="positions" >
    <v>       0.00000010       0.00000010       0.22360386 </v>
    <v>       0.50000095       0.49999905       0.22360405 </v>
    <v>       0.00000010       0.00000010       0.33416228 </v>
    <v>       0.50000095       0.49999905       0.33416247 </v>
    <v>       0.00000010       0.00000010       0.44472070 </v>
    <v>       0.50000095       0.49999905       0.44472089 </v>
    <v>       0.00000010       0.00000010       0.55527911 </v>
    <v>       0.50000095       0.49999905       0.55527930 </v>
    <v>       0.00000010       0.00000010       0.66583753 </v>
    <v>       0.50000095       0.49999905       0.66583772 </v>
    <v>       0.00000010       0.00000010       0.77639595 </v>
    <v>       0.50000095       0.49999905       0.77639614 </v>
   </varray>
  </structure>
  <varray name="forces" >
   <v>       0.00695822      -0.00695822       0.01832330 </v>
   <v>       0.00695822      -0.00695822       0.01832330 </v>
   <v>      -0.00599480       0.00599480       0.00478539 </v>
   <v>      -0.00599480       0.00599480       0.00478539 </v>
   <v>      -0.00636513       0.00636513      -0.02953879 </v>
   <v>      -0.00636513       0.00636513      -0.02953879 </v>
   <v>       0.00636513      -0.00636513       0.02953879 </v>
   <v>       0.00636513      -0.00636513       0.02953879 </v>
   <v>       0.00599480      -0.00599480      -0.00478539 </v>
   <v>       0.00599480      -0.00599480      -0.00478539 </v>
   <v>      -0.00695822       0.00695822      -0.01832330 </v>
   <v>      -0.00695822       0.00695822      -0.01832330 </v>
  </varray>
  <varray name="stress" >
   <v>      -1.21945613      -3.96097510      -0.01943228 </v>
   <v>      -3.96097510      -1.21945613       0.01943228 </v>
   <v>      -0.01943228       0.01943228      -0.78725514 </v>
  </varray>
  <energy>
   <i name="e_fr_energy">    -15.23893832 </i>
   <i name="e_wo_entrp">    -15.19766233 </i>
   <i name="e_0_energy">    -15.21830033 </i>
  </energy>
  <time name="totalsc">    2.56    2.75</time>
  <eigenvalues>
   <array>
    <dimension dim="1">band</dimension>
    <dimension dim="2">kpoint</dimension>
    <dimension dim="3">spin</dimension>
    <field>eigene</field>
    <field>occ</field>
    <set>
     <set comment="spin 1">
      <set comment="kpoint 1">
       <r>   -3.6949    1.0000 </r>
       <r>   -3.4167    1.0000 </r>
       <r>   -2.9626    1.0000 </r>
       <r>   -2.3006    1.0000 </r>
       <r>   -1.4987    1.0000 </r>
       <r>   -0.5707    0.7159 </r>
       <r>    0.1965    0.0000 </r>
       <r>    0.3325    0.0000 </r>
       <r>    0.5809    0.0000 </r>
       <r>    0.8163    0.0000 </r>
       <r>    0.9928    0.0000 </r>
       <r>    1.0971    0.0000 </r>
       <r>    1.4363    0.0000 </r>
       <r>    1.5436    0.0000 </r>
       <r>    1.6062    0.0000 </r>
       <r>    2.1718    0.0000 </r>
      </set>
      <set comment="kpoint 2">
       <r>   -2.7278    1.0000 </r>
       <r>   -2.4527    1.0000 </r>
       <r>   -2.0038    1.0000 </r>
       <r>   -1.3494    1.0000 </r>
       <r>   -0.5582    0.6532 </r>
       <r>    0.0853    0.0000 </r>
       <r>    0.3458    0.0000 </r>
       <r>    0.3545    0.0000 </r>
       <r>    0.7622    0.0000 </r>
       <r>    1.0910    0.0000 </r>
       <r>    1.2050    0.0000 </r>
       <r>    1.3265    0.0000 </r>
       <r>    1.4537    0.0000 </r>
       <r>    1.6723    0.0000 </r>
       <r>    1.7302    0.0000 </r>
       <r>    1.8664    0.0000 </r>
      </set>
      <set comment="kpoint 3">
       <r>   -3.2097    1.0000 </r>
       <r>   -2.9330    1.0000 </r>
       <r>   -2.4813    1.0000 </r>
       <r>   -1.8233    1.0000 </r>
       <r>   -1.7749    1.0000 </r>
       <r>   -1.5032    1.0000 </r>
       <r>   -1.0601    1.0000 </r>
       <r>   -1.0242    1.0000 </r>
       <r>   -0.4133    0.0489 </r>
       <r>   -0.1107    0.0000 </r>
       <r>    0.3691    0.0000 </r>
       <r>    0.6651    0.0000 </r>
       <r>    1.2733    0.0000 </r>
       <r>    1.7575    0.0000 </r>
       <r>    1.9873    0.0000 </r>
       <r>    2.7398    0.0000 </r>
      </set>
      <set comment="kpoint 4">
       <r>   -2.2495    1.0000 </r>
       <r>   -1.9761    1.0000 </r>
       <r>   -1.5300    1.0000 </r>
       <r>   -0.8807    1.0000 </r>
       <r>   -0.8383    1.0000 </r>
       <r>   -0.5715    0.7200 </r>
       <r>   -0.1400    0.0000 </r>
       <r>   -0.0967    0.0000 </r>
       <r>    0.4585    0.0000 </r>
       <r>    0.5296    0.0000 </r>
       <r>    0.7300    0.0000 </r>
       <r>    0.7835    0.0000 </r>
       <r>    1.3411    0.0000 </r>
       <r>    1.4209    0.0000 </r>
       <r>    1.5582    0.0000 </r>
       <r>    1.8856    0.0000 </r>
      </set>
     </set>
    </set>
   </array>
  </eigenvalues>
  <separator name="orbital magnetization" >
   <v name="MAGDIPOLOUT">      0.00000000      0.00000000      0.00000000</v>
  </separator>
  <dos>
   <i name="efermi">     -0.53031784 </i>
   <total>
    <array>
     <dimension dim="1">gridpoints</dimension>
     <dimension dim="2">spin</dimension>
     <field>energy</field>
     <field>total</field>
     <field>integrated</field>
     <set>
      <set comment="spin 1">
       <r>    -4.6949     0.0000     0.0000 </r>
       <r>    -4.6668     0.0000     0.0000 </r>
       <r>    -4.6387     0.0000     0.0000 </r>
       <r>    -4.6106     0.0000     0.0000 </r>
       <r>    -4.5825     0.0000     0.0000 </r>
       <r>    -4.5544     0.0000     0.0000 </r>
       <r>    -4.5262     0.0000     0.0000 </r>
       <r>    -4.4981     0.0000     0.0000 </r>
       <r>    -4.4700     0.0000     0.0000 </r>
       <r>    -4.4419     0.0000     0.0000 </r>
       <r>    -4.4138     0.0000     0.0000 </r>
       <r>    -4.3857     0.0000     0.0000 </r>
       <r>    -4.3575     0.0000     0.0000 </r>
       <r>    -4.3294     0.0000     0.0000 </r>
       <r>    -4.3013     0.0000     0.0000 </r>
       <r>    -4.2732     0.0000     0.0000 </r>
       <r>    -4.2451     0.0000     0.0000 </r>
       <r>    -4.2170     0.0000     0.0000 </r>
       <r>    -4.1888     0.0000     0.0000 </r>
       <r>    -4.1607     0.0000     0.0000 </r>
       <r>    -4.1326     0.0000     0.0000 </r>
       <r>    -4.1045     0.0000     0.0000 </r>
       <r>    -4.0764     0.0000     0.0000 </r>
       <r>    -4.0483     0.0000     0.0000 </r>
       <r>    -4.0202     0.0000     0.0000 </r>
       <r>    -3.9920     0.0001     0.0000 </r>
       <r>    -3.9639     0.0005     0.0000 </r>
       <r>    -3.9358     0.0020     0.0001 </r>
       <r>    -3.9077     0.0078     0.0003 </r>
       <r>    -3.8796     0.0253     0.0010 </r>
       <r>    -3.8515     0.0705     0.0030 </r>
       <r>    -3.8233     0.1680     0.0077 </r>
       <r>    -3.7952     0.3426     0.0173 </r>
       <r>    -3.7671     0.5979     0.0342 </r>
       <r>    -3.7390     0.8924     0.0592 </r>
       <r>    -3.7109     1.1397     0.0913 </r>
       <r>    -3.6828     1.2456     0.1263 </r>
       <r>    -3.6546     1.1662     0.1591 </r>
       <r>    -3.6265     0.9395     0.1855 </r>
       <r>    -3.5984     0.6651     0.2042 </r>
       <r>    -3.5703     0.4504     0.2169 </r>
       <r>    -3.5422     0.3690     0.2272 </r>
       <r>    -3.5141     0.4459     0.2398 </r>
       <r>    -3.4860     0.6579     0.2583 </r>
       <r>    -3.4578     0.9342     0.2845 </r>
       <r>    -3.4297     1.1723     0.3175 </r>
       <r>    -3.4016     1.2838     0.3536 </r>
       <r>    -3.3735     1.2551     0.3889 </r>
       <r>    -3.3454     1.1735     0.4219 </r>
       <r>    -3.3173     1.1851     0.4552 </r>
       <r>    -3.2891     1.4003     0.4946 </r>
       <r>    -3.2610     1.8057     0.5453 </r>
       <r>    -3.2329     2.2450     0.6085 </r>
       <r>    -3.2048     2.4994     0.6787 </r>
       <r>    -3.1767     2.4232     0.7469 </r>
       <r>    -3.1486     2.0416     0.8043 </r>
       <r>    -3.1205     1.5390     0.8475 </r>
       <r>    -3.0923     1.1589     0.8801 </r>
       <r>    -3.0642     1.0958     0.9109 </r>
       <r>    -3.0361     1.4293     0.9511 </r>
       <r>    -3.0080     2.0955     1.0100 </r>
       <r>    -2.9799     2.8852     1.0912 </r>
       <r>    -2.9518     3.5008     1.1896 </r>
       <r>    -2.9236     3.6914     1.2934 </r>
       <r>    -2.8955     3.3997     1.3890 </r>
       <r>    -2.8674     2.8098     1.4679 </r>
       <r>    -2.8393     2.2416     1.5310 </r>
       <r>    -2.8112     1.9621     1.5861 </r>
       <r>    -2.7831     2.0376     1.6434 </r>
       <r>    -2.7549     2.3144     1.7085 </r>
       <r>    -2.7268     2.5285     1.7796 </r>
       <r>    -2.6987     2.4749     1.8492 </r>
       <r>    -2.6706     2.1328     1.9091 </r>
       <r>    -2.6425     1.6711     1.9561 </r>
       <r>    -2.6144     1.3518     1.9941 </r>
       <r>    -2.5863     1.4062     2.0337 </r>
       <r>    -2.5581     1.9399     2.0882 </r>
       <r>    -2.5300     2.8744     2.1690 </r>
       <r>    -2.5019     3.9376     2.2797 </r>
       <r>    -2.4738     4.7515     2.4133 </r>
       <r>    -2.4457     5.0261     2.5546 </r>
       <r>    -2.4176     4.7549     2.6883 </r>
       <r>    -2.3894     4.2508     2.8078 </r>
       <r>    -2.3613     3.9654     2.9193 </r>
       <r>    -2.3332     4.2005     3.0374 </r>
       <r>    -2.3051     4.9067     3.1754 </r>
       <r>    -2.2770     5.6975     3.3356 </r>
       <r>    -2.2489     6.0759     3.5064 </r>
       <r>    -2.2207     5.7378     3.6677 </r>
       <r>    -2.1926     4.7550     3.8014 </r>
       <r>    -2.1645     3.5287     3.9006 </r>
       <r>    -2.1364     2.5721     3.9729 </r>
       <r>    -2.1083     2.2896     4.0373 </r>
       <r>    -2.0802     2.8493     4.1174 </r>
       <r>    -2.0521     4.1302     4.2335 </r>
       <r>    -2.0239     5.7225     4.3944 </r>
       <r>    -1.9958     7.0408     4.5924 </r>
       <r>    -1.9677     7.5899     4.8058 </r>
       <r>    -1.9396     7.2570     5.0098 </r>
       <r>    -1.9115     6.3863     5.1894 </r>
       <r>    -1.8834     5.5358     5.3450 </r>
       <r>    -1.8552     5.0910     5.4882 </r>
       <r>    -1.8271     5.0395     5.6298 </r>
       <r>    -1.7990     5.0561     5.7720 </r>
       <r>    -1.7709     4.7882     5.9066 </r>
       <r>    -1.7428     4.1096     6.0222 </r>
       <r>    -1.7147     3.1860     6.1118 </r>
       <r>    -1.6865     2.3687     6.1783 </r>
       <r>    -1.6584     2.0315     6.2355 </r>
       <r>    -1.6303     2.4420     6.3041 </r>
       <r>    -1.6022     3.6614     6.4071 </r>
       <r>    -1.5741     5.4565     6.5605 </r>
       <r>    -1.5460     7.2891     6.7654 </r>
       <r>    -1.5179     8.4949     7.0043 </r>
       <r>    -1.4897     8.6273     7.2468 </r>
       <r>    -1.4616     7.7329     7.4642 </r>
       <r>    -1.4335     6.3065     7.6415 </r>
       <r>    -1.4054     4.9418     7.7805 </r>
       <r>    -1.3773     3.9639     7.8919 </r>
       <r>    -1.3492     3.3281     7.9855 </r>
       <r>    -1.3210     2.8022     8.0643 </r>
       <r>    -1.2929     2.2189     8.1267 </r>
       <r>    -1.2648     1.5893     8.1714 </r>
       <r>    -1.2367     1.0484     8.2008 </r>
       <r>    -1.2086     0.7474     8.2219 </r>
       <r>    -1.1805     0.7953     8.2442 </r>
       <r>    -1.1524     1.2483     8.2793 </r>
       <r>    -1.1242     2.0903     8.3381 </r>
       <r>    -1.0961     3.1856     8.4276 </r>
       <r>    -1.0680     4.2727     8.5478 </r>
       <r>    -1.0399     5.0733     8.6904 </r>
       <r>    -1.0118     5.4876     8.8447 </r>
       <r>    -0.9837     5.7179     9.0055 </r>
       <r>    -0.9555     6.1609     9.1787 </r>
       <r>    -0.9274     7.0934     9.3781 </r>
       <r>    -0.8993     8.3810     9.6138 </r>
       <r>    -0.8712     9.4729     9.8801 </r>
       <r>    -0.8431     9.7296    10.1536 </r>
       <r>    -0.8150     8.8474    10.4024 </r>
       <r>    -0.7868     7.0590    10.6009 </r>
       <r>    -0.7587     4.9849    10.7410 </r>
       <r>    -0.7306     3.3019    10.8339 </r>
       <r>    -0.7025     2.4897    10.9039 </r>
       <r>    -0.6744     2.7504    10.9812 </r>
       <r>    -0.6463     4.0067    11.0938 </r>
       <r>    -0.6182     5.8799    11.2592 </r>
       <r>    -0.5900     7.7189    11.4762 </r>
       <r>    -0.5619     8.8177    11.7241 </r>
       <r>    -0.5338     8.7808    11.9710 </r>
       <r>    -0.5057     7.7556    12.1890 </r>
       <r>    -0.4776     6.2943    12.3660 </r>
       <r>    -0.4495     4.9474    12.5051 </r>
       <r>    -0.4213     3.9422    12.6159 </r>
       <r>    -0.3932     3.1877    12.7056 </r>
       <r>    -0.3651     2.5104    12.7761 </r>
       <r>    -0.3370     1.8659    12.8286 </r>
       <r>    -0.3089     1.3824    12.8675 </r>
       <r>    -0.2808     1.2892    12.9037 </r>
       <r>    -0.2526     1.8361    12.9553 </r>
       <r>    -0.2245     3.2129    13.0457 </r>
       <r>    -0.1964     5.4193    13.1980 </r>
       <r>    -0.1683     8.1074    13.4260 </r>
       <r>    -0.1402    10.5567    13.7228 </r>
       <r>    -0.1121    11.9271    14.0581 </r>
       <r>    -0.0840    11.7089    14.3873 </r>
       <r>    -0.0558    10.0517    14.6700 </r>
       <r>    -0.0277     7.6884    14.8861 </r>
       <r>     0.0004     5.4980    15.0407 </r>
       <r>     0.0285     4.0389    15.1543 </r>
       <r>     0.0566     3.3654    15.2489 </r>
       <r>     0.0847     3.1768    15.3382 </r>
       <r>     0.1129     3.1153    15.4258 </r>
       <r>     0.1410     2.9865    15.5098 </r>
       <r>     0.1691     2.8075    15.5887 </r>
       <r>     0.1972     2.7388    15.6657 </r>
       <r>     0.2253     3.0038    15.7501 </r>
       <r>     0.2534     3.8137    15.8574 </r>
       <r>     0.2816     5.2534    16.0051 </r>
       <r>     0.3097     7.1524    16.2062 </r>
       <r>     0.3378     9.0800    16.4615 </r>
       <r>     0.3659    10.5558    16.7582 </r>
       <r>     0.3940    11.3415    17.0771 </r>
       <r>     0.4221    11.5482    17.4018 </r>
       <r>     0.4502    11.4558    17.7239 </r>
       <r>     0.4784    11.2381    18.0399 </r>
       <r>     0.5065    10.8576    18.3451 </r>
       <r>     0.5346    10.1982    18.6319 </r>
       <r>     0.5627     9.2816    18.8928 </r>
       <r>     0.5908     8.3724    19.1282 </r>
       <r>     0.6189     7.8948    19.3502 </r>
       <r>     0.6471     8.2148    19.5811 </r>
       <r>     0.6752     9.4188    19.8460 </r>
       <r>     0.7033    11.2008    20.1609 </r>
       <r>     0.7314    12.9193    20.5241 </r>
       <r>     0.7595    13.8268    20.9129 </r>
       <r>     0.7876    13.4025    21.2897 </r>
       <r>     0.8158    11.6207    21.6164 </r>
       <r>     0.8439     8.9744    21.8687 </r>
       <r>     0.8720     6.2197    22.0436 </r>
       <r>     0.9001     4.0139    22.1565 </r>
       <r>     0.9282     2.6806    22.2318 </r>
       <r>     0.9563     2.2038    22.2938 </r>
       <r>     0.9844     2.3742    22.3605 </r>
       <r>     1.0126     2.9409    22.4432 </r>
       <r>     1.0407     3.6780    22.5466 </r>
       <r>     1.0688     4.3863    22.6700 </r>
       <r>     1.0969     4.9116    22.8081 </r>
       <r>     1.1250     5.2098    22.9545 </r>
       <r>     1.1531     5.3926    23.1061 </r>
       <r>     1.1813     5.6829    23.2659 </r>
       <r>     1.2094     6.2966    23.4430 </r>
       <r>     1.2375     7.3417    23.6494 </r>
       <r>     1.2656     8.7764    23.8961 </r>
       <r>     1.2937    10.4154    24.1890 </r>
       <r>     1.3218    11.9799    24.5258 </r>
       <r>     1.3499    13.1937    24.8967 </r>
       <r>     1.3781    13.8779    25.2869 </r>
       <r>     1.4062    13.9808    25.6800 </r>
       <r>     1.4343    13.5619    26.0613 </r>
       <r>     1.4624    12.7868    26.4208 </r>
       <r>     1.4905    11.9045    26.7555 </r>
       <r>     1.5186    11.1362    27.0686 </r>
       <r>     1.5468    10.5350    27.3648 </r>
       <r>     1.5749     9.9854    27.6456 </r>
       <r>     1.6030     9.3774    27.9092 </r>
       <r>     1.6311     8.7597    28.1555 </r>
       <r>     1.6592     8.2951    28.3887 </r>
       <r>     1.6873     8.0791    28.6159 </r>
       <r>     1.7155     8.0420    28.8420 </r>
       <r>     1.7436     8.0417    29.0681 </r>
       <r>     1.7717     8.0383    29.2941 </r>
       <r>     1.7998     8.1432    29.5230 </r>
       <r>     1.8279     8.4635    29.7610 </r>
       <r>     1.8560     8.8980    30.0112 </r>
       <r>     1.8841     9.1237    30.2677 </r>
       <r>     1.9123     8.8215    30.5157 </r>
       <r>     1.9404     7.9171    30.7383 </r>
       <r>     1.9685     6.6041    30.9240 </r>
       <r>     1.9966     5.1715    31.0694 </r>
       <r>     2.0247     3.8451    31.1775 </r>
       <r>     2.0528     2.7601    31.2551 </r>
       <r>     2.0810     1.9948    31.3112 </r>
       <r>     2.1091     1.5686    31.3553 </r>
       <r>     2.1372     1.4118    31.3950 </r>
       <r>     2.1653     1.3757    31.4337 </r>
       <r>     2.1934     1.3050    31.4704 </r>
       <r>     2.2215     1.1194    31.5018 </r>
       <r>     2.2497     0.8391    31.5254 </r>
       <r>     2.2778     0.5423    31.5407 </r>
       <r>     2.3059     0.3007    31.5491 </r>
       <r>     2.3340     0.1428    31.5531 </r>
       <r>     2.3621     0.0580    31.5548 </r>
       <r>     2.3902     0.0202    31.5553 </r>
       <r>     2.4183     0.0060    31.5555 </r>
       <r>     2.4465     0.0017    31.5556 </r>
       <r>     2.4746     0.0015    31.5556 </r>
       <r>     2.5027     0.0050    31.5557 </r>
       <r>     2.5308     0.0184    31.5562 </r>
       <r>     2.5589     0.0586    31.5579 </r>
       <r>     2.5870     0.1599    31.5624 </r>
       <r>     2.6152     0.3732    31.5729 </r>
       <r>     2.6433     0.7453    31.5938 </r>
       <r>     2.6714     1.2734    31.6296 </r>
       <r>     2.6995     1.8614    31.6820 </r>
       <r>     2.7276     2.3276    31.7474 </r>
       <r>     2.7557     2.4902    31.8174 </r>
       <r>     2.7839     2.2793    31.8815 </r>
       <r>     2.8120     1.7848    31.9317 </r>
       <r>     2.8401     1.1957    31.9653 </r>
       <r>     2.8682     0.6853    31.9846 </r>
       <r>     2.8963     0.3360    31.9940 </r>
       <r>     2.9244     0.1409    31.9980 </r>
       <r>     2.9525     0.0506    31.9994 </r>
       <r>     2.9807     0.0155    31.9999 </r>
       <r>     3.0088     0.0041    32.0000 </r>
       <r>     3.0369     0.0009    32.0000 </r>
       <r>     3.0650     0.0002    32.0000 </r>
       <r>     3.0931     0.0000    32.0000 </r>
       <r>     3.1212     0.0000    32.0000 </r>
       <r>     3.1494     0.0000    32.0000 </r>
       <r>     3.1775     0.0000    32.0000 </r>
       <r>     3.2056     0.0000    32.0000 </r>
       <r>     3.2337     0.0000    32.0000 </r>
       <r>     3.2618     0.0000    32.0000 </r>
       <r>     3.2899     0.0000    32.0000 </r>
       <r>     3.3181     0.0000    32.0000 </r>
       <r>     3.3462     0.0000    32.0000 </r>
       <r>     3.3743     0.0000    32.0000 </r>
       <r>     3.4024     0.0000    32.0000 </r>
       <r>     3.4305     0.0000    32.0000 </r>
       <r>     3.4586     0.0000    32.0000 </r>
       <r>     3.4867     0.0000    32.0000 </r>
       <r>     3.5149     0.0000    32.0000 </r>
       <r>     3.5430     0.0000    32.0000 </r>
       <r>     3.5711     0.0000    32.0000 </r>
       <r>     3.5992     0.0000    32.0000 </r>
       <r>     3.6273     0.0000    32.0000 </r>
       <r>     3.6554     0.0000    32.0000 </r>
       <r>     3.6836     0.0000    32.0000 </r>
       <r>     3.7117     0.0000    32.0000 </r>
       <r>     3.7398     0.0000    32.0000 </r>
      </set>
     </set>
    </array>
   </total>
  </dos>
 </calculation>
 <structure name="finalpos" >
  <crystal>
   <varray name="basis" >
    <v>      -2.96663258      -2.96663258       0.00000000 </v>
    <v>       4.19545202      -4.19545202       0.00000000 </v>
    <v>      18.97391500     -18.97391500      26.83316793 </v>
   </varray>
   <i name="volume">    667.95078532 </i>
   <varray name="rec_basis" >
    <v>      -0.16854126      -0.16854126       0.00000000 </v>
    <v>       0.11917667      -0.11917667      -0.16854126 </v>
    <v>       0.00000000       0.00000000       0.03726731 </v>
   </varray>
  </crystal>
  <varray name="positions" >
   <v>       0.00000010       0.00000010       0.22360386 </v>
   <v>       0.50000095       0.49999905       0.22360405 </v>
   <v>       0.00000010       0.00000010       0.33416228 </v>
   <v>       0.50000095       0.49999905       0.33416247 </v>
   <v>       0.00000010       0.00000010       0.44472070 </v>
   <v>       0.50000095       0.49999905       0.44472089 </v>
   <v>       0.00000010       0.00000010       0.55527911 </v>
   <v>       0.50000095       0.49999905       0.55527930 </v>
   <v>       0.00000010       0.00000010       0.66583753 </v>
   <v>       0.50000095       0.49999905       0.66583772 </v>
   <v>       0.00000010       0.00000010       0.77639595 </v>
   <v>       0.50000095       0.49999905       0.77639614 </v>
  </varray>
 </structure>
</modeling>
