unknown system                          
           1
    -2.966633   -2.966633    0.000000
     4.195452   -4.195452    0.000000
    18.973915  -18.973915   26.833168
   Na
    12
Direct configuration=     1
   0.00000010  0.00000010  0.22360386
   0.50000095  0.49999905  0.22360405
   0.00000010  0.00000010  0.33416228
   0.50000095  0.49999905  0.33416247
   0.00000010  0.00000010  0.44472070
   0.50000095  0.49999905  0.44472089
   0.00000010  0.00000010  0.55527911
   0.50000095  0.49999905  0.55527930
   0.00000010  0.00000010  0.66583753
   0.50000095  0.49999905  0.66583772
   0.00000010  0.00000010  0.77639595
   0.50000095  0.49999905  0.77639614
