  16  16   0   0
  0.1932050E+02  0.7708290E-09  0.6535210E-09  0.6136500E-09  0.5000000E-15
  1.000000000000000E-004
  CAR 
 unknown system                          
     10.34479495    -14.20773559  301      1.75652437      1.00000000
    -14.208  0.0000E+00  0.0000E+00
    -14.126  0.0000E+00  0.0000E+00
    -14.044  0.0000E+00  0.0000E+00
    -13.962  0.0000E+00  0.0000E+00
    -13.880  0.0000E+00  0.0000E+00
    -13.799  0.0000E+00  0.0000E+00
    -13.717  0.0000E+00  0.0000E+00
    -13.635  0.0000E+00  0.0000E+00
    -13.553  0.0000E+00  0.0000E+00
    -13.471  0.0000E+00  0.0000E+00
    -13.389  0.0000E+00  0.0000E+00
    -13.307  0.3479E-12  0.2848E-13
    -13.226  0.5994E-07  0.4906E-08
    -13.144  0.1105E-03  0.9047E-05
    -13.062  0.6739E-02  0.5606E-03
    -12.980  0.3709E-01  0.3596E-02
    -12.898  0.1690E-01  0.4979E-02
    -12.816  0.2516E-03  0.5000E-02
    -12.735  0.4748E-07  0.5000E-02
    -12.653  0.7380E-13  0.5000E-02
    -12.571  0.0000E+00  0.5000E-02
    -12.489  0.0000E+00  0.5000E-02
    -12.407  0.0000E+00  0.5000E-02
    -12.325  0.0000E+00  0.5000E-02
    -12.244  0.0000E+00  0.5000E-02
    -12.162  0.0000E+00  0.5000E-02
    -12.080  0.0000E+00  0.5000E-02
    -11.998  0.0000E+00  0.5000E-02
    -11.916  0.0000E+00  0.5000E-02
    -11.834  0.0000E+00  0.5000E-02
    -11.752  0.0000E+00  0.5000E-02
    -11.671  0.0000E+00  0.5000E-02
    -11.589  0.0000E+00  0.5000E-02
    -11.507  0.0000E+00  0.5000E-02
    -11.425  0.0000E+00  0.5000E-02
    -11.343  0.0000E+00  0.5000E-02
    -11.261  0.0000E+00  0.5000E-02
    -11.180  0.0000E+00  0.5000E-02
    -11.098  0.0000E+00  0.5000E-02
    -11.016  0.0000E+00  0.5000E-02
    -10.934  0.0000E+00  0.5000E-02
    -10.852  0.0000E+00  0.5000E-02
    -10.770  0.0000E+00  0.5000E-02
    -10.689  0.0000E+00  0.5000E-02
    -10.607  0.0000E+00  0.5000E-02
    -10.525  0.5299E-18  0.5000E-02
    -10.443  0.7747E-11  0.5000E-02
    -10.361  0.7622E-06  0.5000E-02
    -10.279  0.7926E-03  0.5065E-02
    -10.197  0.2097E-01  0.6781E-02
    -10.116  0.4710E-01  0.1064E-01
    -10.034  0.6910E-01  0.1629E-01
     -9.952  0.4225E-01  0.1975E-01
     -9.870  0.3045E-02  0.2000E-01
     -9.788  0.7707E-05  0.2000E-01
     -9.706  0.2281E-09  0.2000E-01
     -9.625  0.4804E-16  0.2000E-01
     -9.543  0.0000E+00  0.2000E-01
     -9.461  0.0000E+00  0.2000E-01
     -9.379  0.0000E+00  0.2000E-01
     -9.297  0.0000E+00  0.2000E-01
     -9.215  0.0000E+00  0.2000E-01
     -9.134  0.0000E+00  0.2000E-01
     -9.052  0.0000E+00  0.2000E-01
     -8.970  0.0000E+00  0.2000E-01
     -8.888  0.0000E+00  0.2000E-01
     -8.806  0.0000E+00  0.2000E-01
     -8.724  0.0000E+00  0.2000E-01
     -8.642  0.0000E+00  0.2000E-01
     -8.561  0.0000E+00  0.2000E-01
     -8.479  0.0000E+00  0.2000E-01
     -8.397  0.0000E+00  0.2000E-01
     -8.315  0.0000E+00  0.2000E-01
     -8.233  0.0000E+00  0.2000E-01
     -8.151  0.0000E+00  0.2000E-01
     -8.070  0.0000E+00  0.2000E-01
     -7.988  0.0000E+00  0.2000E-01
     -7.906  0.0000E+00  0.2000E-01
     -7.824  0.0000E+00  0.2000E-01
     -7.742  0.0000E+00  0.2000E-01
     -7.660  0.0000E+00  0.2000E-01
     -7.579  0.0000E+00  0.2000E-01
     -7.497  0.0000E+00  0.2000E-01
     -7.415  0.0000E+00  0.2000E-01
     -7.333  0.0000E+00  0.2000E-01
     -7.251  0.0000E+00  0.2000E-01
     -7.169  0.0000E+00  0.2000E-01
     -7.088  0.0000E+00  0.2000E-01
     -7.006  0.0000E+00  0.2000E-01
     -6.924  0.0000E+00  0.2000E-01
     -6.842  0.0000E+00  0.2000E-01
     -6.760  0.0000E+00  0.2000E-01
     -6.678  0.0000E+00  0.2000E-01
     -6.596  0.0000E+00  0.2000E-01
     -6.515  0.3534E-14  0.2000E-01
     -6.433  0.2414E-08  0.2000E-01
     -6.351  0.9749E-05  0.2000E-01
     -6.269  0.3597E-03  0.2003E-01
     -6.187  0.1356E-02  0.2014E-01
     -6.105  0.4094E-02  0.2048E-01
     -6.024  0.7408E-02  0.2108E-01
     -5.942  0.1355E-01  0.2219E-01
     -5.860  0.2497E-01  0.2423E-01
     -5.778  0.8989E-02  0.2497E-01
     -5.696  0.3624E-03  0.2500E-01
     -5.614  0.6206E-06  0.2500E-01
     -5.533  0.1392E-10  0.2500E-01
     -5.451  0.1978E-17  0.2500E-01
     -5.369  0.0000E+00  0.2500E-01
     -5.287  0.0000E+00  0.2500E-01
     -5.205  0.0000E+00  0.2500E-01
     -5.123  0.0000E+00  0.2500E-01
     -5.041  0.0000E+00  0.2500E-01
     -4.960  0.0000E+00  0.2500E-01
     -4.878  0.0000E+00  0.2500E-01
     -4.796  0.0000E+00  0.2500E-01
     -4.714  0.0000E+00  0.2500E-01
     -4.632  0.0000E+00  0.2500E-01
     -4.550  0.0000E+00  0.2500E-01
     -4.469  0.0000E+00  0.2500E-01
     -4.387  0.0000E+00  0.2500E-01
     -4.305  0.0000E+00  0.2500E-01
     -4.223  0.0000E+00  0.2500E-01
     -4.141  0.0000E+00  0.2500E-01
     -4.059  0.0000E+00  0.2500E-01
     -3.978  0.0000E+00  0.2500E-01
     -3.896  0.0000E+00  0.2500E-01
     -3.814  0.0000E+00  0.2500E-01
     -3.732  0.0000E+00  0.2500E-01
     -3.650  0.0000E+00  0.2500E-01
     -3.568  0.0000E+00  0.2500E-01
     -3.486  0.0000E+00  0.2500E-01
     -3.405  0.1766E-18  0.2500E-01
     -3.323  0.3720E-11  0.2500E-01
     -3.241  0.4574E-06  0.2500E-01
     -3.159  0.4341E-03  0.2504E-01
     -3.077  0.6697E-02  0.2558E-01
     -2.995  0.1047E-01  0.2644E-01
     -2.914  0.2149E-01  0.2820E-01
     -2.832  0.3127E-01  0.3076E-01
     -2.750  0.3490E-01  0.3361E-01
     -2.668  0.4758E-01  0.3751E-01
     -2.586  0.1592E-01  0.3881E-01
     -2.504  0.9141E-02  0.3956E-01
     -2.423  0.5287E-02  0.3999E-01
     -2.341  0.9137E-04  0.4000E-01
     -2.259  0.1566E-07  0.4000E-01
     -2.177  0.1764E-13  0.4000E-01
     -2.095  0.0000E+00  0.4000E-01
     -2.013  0.0000E+00  0.4000E-01
     -1.931  0.0000E+00  0.4000E-01
     -1.850  0.0000E+00  0.4000E-01
     -1.768  0.0000E+00  0.4000E-01
     -1.686  0.0000E+00  0.4000E-01
     -1.604  0.0000E+00  0.4000E-01
     -1.522  0.0000E+00  0.4000E-01
     -1.440  0.0000E+00  0.4000E-01
     -1.359  0.0000E+00  0.4000E-01
     -1.277  0.0000E+00  0.4000E-01
     -1.195  0.0000E+00  0.4000E-01
     -1.113  0.0000E+00  0.4000E-01
     -1.031  0.0000E+00  0.4000E-01
     -0.949  0.1054E-11  0.4000E-01
     -0.868  0.2096E-06  0.4000E-01
     -0.786  0.3256E-03  0.4003E-01
     -0.704  0.8156E-02  0.4069E-01
     -0.622  0.1910E-01  0.4226E-01
     -0.540  0.2460E-01  0.4427E-01
     -0.458  0.2661E-01  0.4645E-01
     -0.376  0.1926E-01  0.4802E-01
     -0.295  0.1149E-01  0.4897E-01
     -0.213  0.1647E-01  0.5031E-01
     -0.131  0.1588E-01  0.5161E-01
     -0.049  0.1350E-01  0.5272E-01
      0.033  0.8109E-02  0.5338E-01
      0.115  0.9069E-02  0.5412E-01
      0.196  0.1056E-01  0.5499E-01
      0.278  0.1591E-01  0.5629E-01
      0.360  0.2162E-01  0.5806E-01
      0.442  0.1972E-01  0.5967E-01
      0.524  0.2232E-01  0.6150E-01
      0.606  0.2026E-01  0.6316E-01
      0.687  0.1213E-01  0.6415E-01
      0.769  0.1036E-01  0.6500E-01
      0.851  0.1434E-01  0.6617E-01
      0.933  0.1695E-01  0.6756E-01
      1.015  0.2107E-01  0.6928E-01
      1.097  0.2533E-01  0.7136E-01
      1.179  0.2703E-01  0.7357E-01
      1.260  0.2870E-01  0.7592E-01
      1.342  0.3073E-01  0.7843E-01
      1.424  0.1396E-01  0.7958E-01
      1.506  0.4386E-02  0.7993E-01
      1.588  0.7106E-03  0.7999E-01
      1.670  0.8707E-04  0.8000E-01
      1.751  0.2067E-06  0.8000E-01
      1.833  0.3295E-11  0.8000E-01
      1.915  0.2826E-18  0.8000E-01
      1.997  0.0000E+00  0.8000E-01
      2.079  0.0000E+00  0.8000E-01
      2.161  0.0000E+00  0.8000E-01
      2.242  0.0000E+00  0.8000E-01
      2.324  0.0000E+00  0.8000E-01
      2.406  0.0000E+00  0.8000E-01
      2.488  0.0000E+00  0.8000E-01
      2.570  0.0000E+00  0.8000E-01
      2.652  0.0000E+00  0.8000E-01
      2.734  0.0000E+00  0.8000E-01
      2.815  0.0000E+00  0.8000E-01
      2.897  0.0000E+00  0.8000E-01
      2.979  0.0000E+00  0.8000E-01
      3.061  0.0000E+00  0.8000E-01
      3.143  0.0000E+00  0.8000E-01
      3.225  0.0000E+00  0.8000E-01
      3.306  0.0000E+00  0.8000E-01
      3.388  0.0000E+00  0.8000E-01
      3.470  0.0000E+00  0.8000E-01
      3.552  0.0000E+00  0.8000E-01
      3.634  0.0000E+00  0.8000E-01
      3.716  0.0000E+00  0.8000E-01
      3.797  0.0000E+00  0.8000E-01
      3.879  0.0000E+00  0.8000E-01
      3.961  0.0000E+00  0.8000E-01
      4.043  0.0000E+00  0.8000E-01
      4.125  0.6294E-12  0.8000E-01
      4.207  0.9960E-07  0.8000E-01
      4.289  0.1059E-03  0.8001E-01
      4.370  0.1496E-02  0.8013E-01
      4.452  0.4343E-02  0.8049E-01
      4.534  0.4722E-02  0.8087E-01
      4.616  0.1479E-02  0.8099E-01
      4.698  0.8925E-02  0.8172E-01
      4.780  0.1291E-01  0.8278E-01
      4.861  0.5254E-02  0.8321E-01
      4.943  0.4815E-02  0.8360E-01
      5.025  0.6240E-02  0.8412E-01
      5.107  0.3653E-02  0.8441E-01
      5.189  0.2456E-02  0.8462E-01
      5.271  0.4312E-02  0.8497E-01
      5.352  0.5140E-03  0.8501E-01
      5.434  0.1324E-02  0.8512E-01
      5.516  0.6565E-03  0.8517E-01
      5.598  0.2659E-02  0.8539E-01
      5.680  0.6271E-02  0.8590E-01
      5.762  0.9520E-02  0.8668E-01
      5.843  0.1995E-01  0.8832E-01
      5.925  0.1826E-01  0.8981E-01
      6.007  0.1519E-01  0.9105E-01
      6.089  0.2052E-01  0.9273E-01
      6.171  0.2267E-01  0.9459E-01
      6.253  0.1276E-01  0.9563E-01
      6.335  0.1444E-01  0.9681E-01
      6.416  0.2435E-01  0.9881E-01
      6.498  0.1043E-01  0.9966E-01
      6.580  0.3824E-02  0.9997E-01
      6.662  0.3183E-03  0.1000E+00
      6.744  0.4141E-06  0.1000E+00
      6.826  0.4100E-11  0.1000E+00
      6.907  0.4034E-16  0.1000E+00
      6.989  0.1412E-09  0.1000E+00
      7.071  0.3025E-05  0.1000E+00
      7.153  0.5590E-03  0.1000E+00
      7.235  0.2500E-02  0.1003E+00
      7.317  0.3557E-02  0.1005E+00
      7.398  0.2946E-02  0.1008E+00
      7.480  0.2165E-02  0.1010E+00
      7.562  0.3993E-02  0.1013E+00
      7.644  0.1258E-01  0.1023E+00
      7.726  0.5852E-02  0.1028E+00
      7.808  0.4545E-02  0.1032E+00
      7.890  0.5437E-02  0.1036E+00
      7.971  0.1050E-01  0.1045E+00
      8.053  0.1808E-01  0.1060E+00
      8.135  0.1499E-01  0.1072E+00
      8.217  0.1338E-01  0.1083E+00
      8.299  0.1164E-01  0.1092E+00
      8.381  0.1234E-01  0.1102E+00
      8.462  0.5953E-02  0.1107E+00
      8.544  0.1259E-01  0.1118E+00
      8.626  0.1454E-01  0.1129E+00
      8.708  0.1083E-01  0.1138E+00
      8.790  0.1591E-01  0.1151E+00
      8.872  0.9879E-02  0.1159E+00
      8.953  0.1429E-01  0.1171E+00
      9.035  0.2066E-01  0.1188E+00
      9.117  0.1017E-01  0.1196E+00
      9.199  0.3295E-02  0.1199E+00
      9.281  0.1126E-02  0.1200E+00
      9.363  0.8990E-04  0.1200E+00
      9.445  0.9669E-07  0.1200E+00
      9.526  0.6635E-12  0.1200E+00
      9.608  0.0000E+00  0.1200E+00
      9.690  0.0000E+00  0.1200E+00
      9.772  0.0000E+00  0.1200E+00
      9.854  0.0000E+00  0.1200E+00
      9.936  0.0000E+00  0.1200E+00
     10.017  0.0000E+00  0.1200E+00
     10.099  0.0000E+00  0.1200E+00
     10.181  0.0000E+00  0.1200E+00
     10.263  0.0000E+00  0.1200E+00
     10.345  0.0000E+00  0.1200E+00
