 vasp.6.2.1 16May21 (build Dec 23 2021 00:35:04) complex                        
  
 executed on             LinuxIFC date 2023.02.21  00:20:15
 running on  128 total cores
 distrk:  each k-point on  128 cores,    1 groups
 distr:  one band on NCORE=  16 cores,    8 groups


--------------------------------------------------------------------------------------------------------


 INCAR:
   ENCUT = 400.000000
   KSPACING = 0.320000
   SIGMA = 0.050000
   EDIFF = 1.00e-08
   EDIFFG = -1.00e-02
   ALGO = Fast
   GGA = PE
   PREC = Normal
   IBRION = 2
   ISIF = 3
   ISMEAR = 0
   ISPIN = 0
   LMAXMIX = 6
   NELM = 150
   NPAR = 8
   NSW = 800
   NWRITE = 1
   KGAMMA = .TRUE.
   LASPH = .TRUE.
   LCHARG = .FALSE.
   LWAVE = .FALSE.
   LREAL = AUTO

 POTCAR:    PAW_PBE Li 17Jan2003                  
 POTCAR:    PAW_PBE P 06Sep2000                   
 POTCAR:    PAW_PBE S 06Sep2000                   
 POTCAR:    PAW_PBE Li 17Jan2003                  
  local pseudopotential read in
  partial core-charges read in
  partial kinetic energy density read in
  atomic valenz-charges read in
  non local Contribution for L=           0  read in
    real space projection operators read in
  non local Contribution for L=           0  read in
    real space projection operators read in
  non local Contribution for L=           1  read in
    real space projection operators read in
    PAW grid and wavefunctions read in
 
   number of l-projection  operators is LMAX  =           3
   number of lm-projection operators is LMMAX =           5
 
 POTCAR:    PAW_PBE P 06Sep2000                   
  local pseudopotential read in
  partial core-charges read in
  partial kinetic energy density read in
  atomic valenz-charges read in
  non local Contribution for L=           0  read in
    real space projection operators read in
  non local Contribution for L=           0  read in
    real space projection operators read in
  non local Contribution for L=           1  read in
    real space projection operators read in
  non local Contribution for L=           1  read in
    real space projection operators read in
    PAW grid and wavefunctions read in
 
   number of l-projection  operators is LMAX  =           4
   number of lm-projection operators is LMMAX =           8
 
 POTCAR:    PAW_PBE S 06Sep2000                   
  local pseudopotential read in
  partial core-charges read in
  partial kinetic energy density read in
  atomic valenz-charges read in
  non local Contribution for L=           0  read in
    real space projection operators read in
  non local Contribution for L=           0  read in
    real space projection operators read in
  non local Contribution for L=           1  read in
    real space projection operators read in
  non local Contribution for L=           1  read in
    real space projection operators read in
    PAW grid and wavefunctions read in
 
   number of l-projection  operators is LMAX  =           4
   number of lm-projection operators is LMMAX =           8
 
 Optimization of the real space projectors (new method)

 maximal supplied QI-value         = 18.33
 optimisation between [QCUT,QGAM] = [ 10.08, 20.35] = [ 28.46,115.93] Ry 
 Optimized for a Real-space Cutoff    1.16 Angstroem

   l    n(q)    QCUT    max X(q) W(low)/X(q) W(high)/X(q)  e(spline) 
   0      7    10.082    33.825    0.44E-03    0.14E-03    0.78E-07
   0      7    10.082     8.944    0.33E-03    0.12E-03    0.56E-07
   1      6    10.082     4.214    0.33E-03    0.37E-03    0.39E-07
 Optimization of the real space projectors (new method)

 maximal supplied QI-value         = 19.84
 optimisation between [QCUT,QGAM] = [ 10.12, 20.44] = [ 28.68,116.96] Ry 
 Optimized for a Real-space Cutoff    1.23 Angstroem

   l    n(q)    QCUT    max X(q) W(low)/X(q) W(high)/X(q)  e(spline) 
   0      7    10.119   160.924    0.70E-04    0.27E-03    0.49E-07
   0      7    10.119   130.086    0.69E-04    0.27E-03    0.48E-07
   1      7    10.119    74.434    0.43E-03    0.59E-03    0.12E-06
   1      7    10.119    49.120    0.42E-03    0.58E-03    0.12E-06
 Optimization of the real space projectors (new method)

 maximal supplied QI-value         = 19.84
 optimisation between [QCUT,QGAM] = [ 10.12, 20.44] = [ 28.68,116.96] Ry 
 Optimized for a Real-space Cutoff    1.23 Angstroem

   l    n(q)    QCUT    max X(q) W(low)/X(q) W(high)/X(q)  e(spline) 
   0      7    10.119   187.594    0.62E-04    0.28E-03    0.52E-07
   0      7    10.119   164.243    0.61E-04    0.28E-03    0.52E-07
   1      7    10.119    67.533    0.45E-03    0.63E-03    0.13E-06
   1      7    10.119    50.729    0.44E-03    0.62E-03    0.12E-06
  PAW_PBE Li 17Jan2003                  :
 energy of atom  1       EATOM=   -5.3001
 kinetic energy error for atom=    0.0000 (will be added to EATOM!!)
  PAW_PBE P 06Sep2000                   :
 energy of atom  2       EATOM= -176.0430
 kinetic energy error for atom=    0.0023 (will be added to EATOM!!)
  PAW_PBE S 06Sep2000                   :
 energy of atom  3       EATOM= -276.8230
 kinetic energy error for atom=    0.0046 (will be added to EATOM!!)
 
 
 POSCAR: Li  P  S
  positions in cartesian coordinates
  No initial velocities read in
 exchange correlation table for  LEXCH =        8
   RHO(1)=    0.500       N(1)  =     2000
   RHO(2)=  100.500       N(2)  =     4000
 


--------------------------------------------------------------------------------------------------------


 ion  position               nearest neighbor table
   1  0.750  0.669  0.518-  11 2.27   9 2.38  16 2.43  13 2.54
   2  0.250  0.669  0.518-  12 2.27  10 2.38  16 2.43  13 2.54
   3  0.750  0.331  0.018-   9 2.27  11 2.38  15 2.43  14 2.54
   4  0.250  0.331  0.018-  10 2.27  12 2.38  15 2.43  14 2.54
   5  0.500  0.855  0.986-  15 2.44  13 2.48  11 2.55  12 2.55
   6  0.000  0.145  0.486-  16 2.44  14 2.48   9 2.55  10 2.55
   7  0.500  0.178  0.494-  13 1.98  15 2.02   9 2.06  10 2.06
   8  0.000  0.822  0.994-  14 1.98  16 2.02  11 2.06  12 2.06
   9  0.718  0.328  0.386-   7 2.06   3 2.27   1 2.38   6 2.55
  10  0.282  0.328  0.386-   7 2.06   4 2.27   2 2.38   6 2.55
  11  0.782  0.672  0.886-   8 2.06   1 2.27   3 2.38   5 2.55
  12  0.218  0.672  0.886-   8 2.06   2 2.27   4 2.38   5 2.55
  13  0.500  0.892  0.388-   7 1.98   5 2.48   1 2.54   2 2.54
  14  0.000  0.108  0.888-   8 1.98   6 2.48   3 2.54   4 2.54
  15  0.500  0.195  0.823-   7 2.02   4 2.43   3 2.43   5 2.44
  16  0.000  0.805  0.323-   8 2.02   2 2.43   1 2.43   6 2.44
 
  LATTYP: Found a simple orthorhombic cell.
 ALAT       =     6.1365000000
 B/A-ratio  =     1.0649735191
 C/A-ratio  =     1.2561378636
  
  Lattice vectors:
  
 A1 = (   0.0000000000,   0.0000000000,  -6.1365000000)
 A2 = (   0.0000000000,   6.5352100000,   0.0000000000)
 A3 = (   7.7082900000,   0.0000000000,   0.0000000000)


Analysis of symmetry for initial positions (statically):
=====================================================================
 Subroutine PRICEL returns:
 Original cell was already a primitive cell.
 

 Routine SETGRP: Setting up the symmetry group for a 
 simple orthorhombic supercell.


 Subroutine GETGRP returns: Found  4 space group operations
 (whereof  2 operations were pure point group operations)
 out of a pool of  8 trial point group operations.


The static configuration has the point symmetry C_1h.
 The point group associated with its full space group is C_2v.


Analysis of symmetry for dynamics (positions and initial velocities):
=====================================================================
 Subroutine PRICEL returns:
 Original cell was already a primitive cell.
 

 Routine SETGRP: Setting up the symmetry group for a 
 simple orthorhombic supercell.


 Subroutine GETGRP returns: Found  4 space group operations
 (whereof  2 operations were pure point group operations)
 out of a pool of  8 trial point group operations.


The dynamic configuration has the point symmetry C_1h.
 The point group associated with its full space group is C_2v.


 Subroutine INISYM returns: Found  4 space group operations
 (whereof  2 operations are pure point group operations),
 and found     1 'primitive' translations


----------------------------------------------------------------------------------------

                                     Primitive cell                                     

  volume of cell :     309.1280

  direct lattice vectors                    reciprocal lattice vectors
     7.708290000  0.000000000  0.000000000     0.129730459  0.000000000  0.000000000
     0.000000000  6.535210000  0.000000000     0.000000000  0.153017271  0.000000000
     0.000000000  0.000000000  6.136500000     0.000000000  0.000000000  0.162959342

  length of vectors
     7.708290000  6.535210000  6.136500000     0.129730459  0.153017271  0.162959342

  position of ions in fractional coordinates (direct lattice)
     0.750200000  0.669100000  0.517900000
     0.249800000  0.669100000  0.517900000
     0.749800000  0.330900000  0.017900000
     0.250200000  0.330900000  0.017900000
     0.500000000  0.855000000  0.986000000
     0.000000000  0.145000000  0.486000000
     0.500000000  0.178200000  0.494200000
     0.000000000  0.821800000  0.994200000
     0.718500000  0.328300000  0.385700000
     0.281500000  0.328300000  0.385700000
     0.781500000  0.671700000  0.885700000
     0.218500000  0.671700000  0.885700000
     0.500000000  0.891700000  0.388000000
     0.000000000  0.108300000  0.888000000
     0.500000000  0.195100000  0.823000000
     0.000000000  0.804900000  0.323000000

  ion indices of the primitive-cell ions
   primitive index   ion index
                 1           1
                 2           2
                 3           3
                 4           4
                 5           5
                 6           6
                 7           7
                 8           8
                 9           9
                10          10
                11          11
                12          12
                13          13
                14          14
                15          15
                16          16

----------------------------------------------------------------------------------------

 
 -----------------------------------------------------------------------------
|                                                                             |
|           W    W    AA    RRRRR   N    N  II  N    N   GGGG   !!!           |
|           W    W   A  A   R    R  NN   N  II  NN   N  G    G  !!!           |
|           W    W  A    A  R    R  N N  N  II  N N  N  G       !!!           |
|           W WW W  AAAAAA  RRRRR   N  N N  II  N  N N  G  GGG   !            |
|           WW  WW  A    A  R   R   N   NN  II  N   NN  G    G                |
|           W    W  A    A  R    R  N    N  II  N    N   GGGG   !!!           |
|                                                                             |
|     The requested file  could not be found or opened for reading            |
|     k-point information. Automatic k-point generation is used as a          |
|     fallback, which may lead to unwanted results.                           |
|                                                                             |
 -----------------------------------------------------------------------------

 

Automatic generation of k-mesh.
 Grid dimensions derived from KSPACING:
 generate k-points for:    3    4    4

 Generating k-lattice:

  Cartesian coordinates                     Fractional coordinates (reciprocal lattice)
     0.043243486  0.000000000  0.000000000     0.333333333  0.000000000  0.000000000
     0.000000000  0.038254318  0.000000000     0.000000000  0.250000000  0.000000000
     0.000000000  0.000000000  0.040739835     0.000000000  0.000000000  0.250000000

  Length of vectors
     0.043243486  0.038254318  0.040739835

  Shift w.r.t. Gamma in fractional coordinates (k-lattice)
     0.000000000  0.000000000  0.000000000

 
 Subroutine IBZKPT returns following result:
 ===========================================
 
 Found     18 irreducible k-points:
 
 Following reciprocal coordinates:
            Coordinates               Weight
  0.000000  0.000000  0.000000      1.000000
  0.333333  0.000000  0.000000      2.000000
  0.000000  0.250000  0.000000      2.000000
  0.333333  0.250000  0.000000      4.000000
  0.000000  0.500000  0.000000      1.000000
  0.333333  0.500000  0.000000      2.000000
  0.000000  0.000000  0.250000      2.000000
  0.333333  0.000000  0.250000      4.000000
  0.000000  0.250000  0.250000      4.000000
  0.333333  0.250000  0.250000      8.000000
  0.000000  0.500000  0.250000      2.000000
  0.333333  0.500000  0.250000      4.000000
  0.000000  0.000000  0.500000      1.000000
  0.333333  0.000000  0.500000      2.000000
  0.000000  0.250000  0.500000      2.000000
  0.333333  0.250000  0.500000      4.000000
  0.000000  0.500000  0.500000      1.000000
  0.333333  0.500000  0.500000      2.000000
 
 Following cartesian coordinates:
            Coordinates               Weight
  0.000000  0.000000  0.000000      1.000000
  0.043243  0.000000  0.000000      2.000000
  0.000000  0.038254  0.000000      2.000000
  0.043243  0.038254  0.000000      4.000000
  0.000000  0.076509  0.000000      1.000000
  0.043243  0.076509  0.000000      2.000000
  0.000000  0.000000  0.040740      2.000000
  0.043243  0.000000  0.040740      4.000000
  0.000000  0.038254  0.040740      4.000000
  0.043243  0.038254  0.040740      8.000000
  0.000000  0.076509  0.040740      2.000000
  0.043243  0.076509  0.040740      4.000000
  0.000000  0.000000  0.081480      1.000000
  0.043243  0.000000  0.081480      2.000000
  0.000000  0.038254  0.081480      2.000000
  0.043243  0.038254  0.081480      4.000000
  0.000000  0.076509  0.081480      1.000000
  0.043243  0.076509  0.081480      2.000000
 


--------------------------------------------------------------------------------------------------------




 Dimension of arrays:
   k-points           NKPTS =     18   k-points in BZ     NKDIM =     18   number of bands    NBANDS=     48
   number of dos      NEDOS =    301   number of ions     NIONS =     16
   non local maximal  LDIM  =      4   non local SUM 2l+1 LMDIM =      8
   total plane-waves  NPLWV =  38400
   max r-space proj   IRMAX =   1010   max aug-charges    IRDMAX=   4174
   dimension x,y,z NGX =    40 NGY =   32 NGZ =   30
   dimension x,y,z NGXF=    80 NGYF=   64 NGZF=   60
   support grid    NGXF=    80 NGYF=   64 NGZF=   60
   ions per type =               6   2   8
   NGX,Y,Z   is equivalent  to a cutoff of   8.63,  8.14,  8.13 a.u.
   NGXF,Y,Z  is equivalent  to a cutoff of  17.25, 16.28, 16.25 a.u.

 SYSTEM =  unknown system                          
 POSCAR =  Li  P  S                                

 Startparameter for this run:
   NWRITE =      1    write-flag & timer
   PREC   = normal    normal or accurate (medium, high low for compatibility)
   ISTART =      0    job   : 0-new  1-cont  2-samecut
   ICHARG =      2    charge: 1-file 2-atom 10-const
   ISPIN  =      1    spin polarized calculation?
   LNONCOLLINEAR =      F non collinear calculations
   LSORBIT =      F    spin-orbit coupling
   INIWAV =      1    electr: 0-lowe 1-rand  2-diag
   LASPH  =      T    aspherical Exc in radial PAW
 Electronic Relaxation 1
   ENCUT  =  400.0 eV  29.40 Ry    5.42 a.u.  12.57 10.66 10.01*2*pi/ulx,y,z
   ENINI  =  400.0     initial cutoff
   ENAUG  =  342.9 eV  augmentation charge cutoff
   NELM   =    150;   NELMIN=  2; NELMDL= -5     # of ELM steps 
   EDIFF  = 0.1E-07   stopping-criterion for ELM
   LREAL  =      T    real-space projection
   NLSPLINE    = F    spline interpolate recip. space projectors
   LCOMPAT=      F    compatible to vasp.4.4
   GGA_COMPAT  = T    GGA compatible to vasp.4.4-vasp.4.6
   LMAXPAW     = -100 max onsite density
   LMAXMIX     =    6 max onsite mixed and CHGCAR
   VOSKOWN=      0    Vosko Wilk Nusair interpolation
   ROPT   =   -0.00050  -0.00050  -0.00050
 Ionic relaxation
   EDIFFG = -.1E-01   stopping-criterion for IOM
   NSW    =    800    number of steps for IOM
   NBLOCK =      1;   KBLOCK =    800    inner block; outer block 
   IBRION =      2    ionic relax: 0-MD 1-quasi-New 2-CG
   NFREE  =      1    steps in history (QN), initial steepest desc. (CG)
   ISIF   =      3    stress and relaxation
   IWAVPR =     11    prediction:  0-non 1-charg 2-wave 3-comb
   ISYM   =      2    0-nonsym 1-usesym 2-fastsym
   LCORR  =      T    Harris-Foulkes like correction to forces

   POTIM  = 0.5000    time-step for ionic-motion
   TEIN   =    0.0    initial temperature
   TEBEG  =    0.0;   TEEND  =   0.0 temperature during run
   SMASS  =  -3.00    Nose mass-parameter (am)
   estimated Nose-frequenzy (Omega)   =  0.10E-29 period in steps = 0.13E+47 mass=  -0.136E-26a.u.
   SCALEE = 1.0000    scale energy and forces
   NPACO  =    256;   APACO  = 16.0  distance and # of slots for P.C.
   PSTRESS=    0.0 pullay stress

  Mass of Ions in am
   POMASS =   7.01 30.97 32.07
  Ionic Valenz
   ZVAL   =   1.00  5.00  6.00
  Atomic Wigner-Seitz radii
   RWIGS  =  -1.00 -1.00 -1.00
  virtual crystal weights 
   VCA    =   1.00  1.00  1.00
   NELECT =      64.0000    total number of electrons
   NUPDOWN=      -1.0000    fix difference up-down

 DOS related values:
   EMIN   =  10.00;   EMAX   =-10.00  energy-range for DOS
   EFERMI =   0.00
   ISMEAR =     0;   SIGMA  =   0.05  broadening in eV -4-tet -1-fermi 0-gaus

 Electronic relaxation 2 (details)
   IALGO  =     68    algorithm
   LDIAG  =      T    sub-space diagonalisation (order eigenvalues)
   LSUBROT=      F    optimize rotation matrix (better conditioning)
   TURBO    =      0    0=normal 1=particle mesh
   IRESTART =      0    0=no restart 2=restart with 2 vectors
   NREBOOT  =      0    no. of reboots
   NMIN     =      0    reboot dimension
   EREF     =   0.00    reference energy to select bands
   IMIX   =      4    mixing-type and parameters
     AMIX     =   0.40;   BMIX     =  1.00
     AMIX_MAG =   1.60;   BMIX_MAG =  1.00
     AMIN     =   0.10
     WC   =   100.;   INIMIX=   1;  MIXPRE=   1;  MAXMIX= -45

 Intra band minimization:
   WEIMIN = 0.0010     energy-eigenvalue tresh-hold
   EBREAK =  0.52E-10  absolut break condition
   DEPER  =   0.30     relativ break condition  

   TIME   =   0.40     timestep for ELM

  volume/ion in A,a.u.               =      19.32       130.38
  Fermi-wavevector in a.u.,A,eV,Ry     =   0.968476  1.830154 12.761518  0.937945
  Thomas-Fermi vector in A             =   2.098448
 
 Write flags
   LWAVE        =      F    write WAVECAR
   LDOWNSAMPLE  =      F    k-point downsampling of WAVECAR
   LCHARG       =      F    write CHGCAR
   LVTOT        =      F    write LOCPOT, total local potential
   LVHAR        =      F    write LOCPOT, Hartree potential only
   LELF         =      F    write electronic localiz. function (ELF)
   LORBIT       =      0    0 simple, 1 ext, 2 COOP (PROOUT), +10 PAW based schemes


 Dipole corrections
   LMONO  =      F    monopole corrections only (constant potential shift)
   LDIPOL =      F    correct potential (dipole corrections)
   IDIPOL =      0    1-x, 2-y, 3-z, 4-all directions 
   EPSILON=  1.0000000 bulk dielectric constant

 Exchange correlation treatment:
   GGA     =    PE    GGA type
   LEXCH   =     8    internal setting for exchange type
   VOSKOWN=      0    Vosko Wilk Nusair interpolation
   LHFCALC =     F    Hartree Fock is set to
   LHFONE  =     F    Hartree Fock one center treatment
   AEXX    =    0.0000 exact exchange contribution

 Linear response parameters
   LEPSILON=     F    determine dielectric tensor
   LRPA    =     F    only Hartree local field effects (RPA)
   LNABLA  =     F    use nabla operator in PAW spheres
   LVEL    =     F    velocity operator in full k-point grid
   LINTERFAST=   F  fast interpolation
   KINTER  =     0    interpolate to denser k-point grid
   CSHIFT  =0.1000    complex shift for real part using Kramers Kronig
   OMEGAMAX=  -1.0    maximum frequency
   DEG_THRESHOLD= 0.2000000E-02 threshold for treating states as degnerate
   RTIME   =   -0.100 relaxation time in fs
  (WPLASMAI=    0.000 imaginary part of plasma frequency in eV, 0.658/RTIME)
   DFIELD  = 0.0000000 0.0000000 0.0000000 field for delta impulse in time
 
 Orbital magnetization related:
   ORBITALMAG=     F  switch on orbital magnetization
   LCHIMAG   =     F  perturbation theory with respect to B field
   DQ        =  0.001000  dq finite difference perturbation B field
   LLRAUG    =     F  two centre corrections for induced B field



--------------------------------------------------------------------------------------------------------


 conjugate gradient relaxation of ions
 charge density and potential will be updated during run
 non-spin polarized calculation
 RMM-DIIS sequential band-by-band and
  variant of blocked Davidson during initial phase
 perform sub-space diagonalisation
    before iterative eigenvector-optimisation
 modified Broyden-mixing scheme, WC =      100.0
 initial mixing is a Kerker type mixing with AMIX =  0.4000 and BMIX =      1.0000
 Hartree-type preconditioning will be used
 using additional bands           16
 real space projection scheme for non local part
 use partial core corrections
 calculate Harris-corrections to forces 
   (improved forces if not selfconsistent)
 use gradient corrections 
 use of overlap-Matrix (Vanderbilt PP)
 Gauss-broadening in eV      SIGMA  =   0.05


--------------------------------------------------------------------------------------------------------


  energy-cutoff  :      400.00
  volume of cell :      309.13
      direct lattice vectors                 reciprocal lattice vectors
     7.708290000  0.000000000  0.000000000     0.129730459  0.000000000  0.000000000
     0.000000000  6.535210000  0.000000000     0.000000000  0.153017271  0.000000000
     0.000000000  0.000000000  6.136500000     0.000000000  0.000000000  0.162959342

  length of vectors
     7.708290000  6.535210000  6.136500000     0.129730459  0.153017271  0.162959342


 
 k-points in units of 2pi/SCALE and weight: read from INCAR                         
   0.00000000  0.00000000  0.00000000       0.021
   0.04324349  0.00000000  0.00000000       0.042
   0.00000000  0.03825432  0.00000000       0.042
   0.04324349  0.03825432  0.00000000       0.083
   0.00000000  0.07650864  0.00000000       0.021
   0.04324349  0.07650864  0.00000000       0.042
   0.00000000  0.00000000  0.04073984       0.042
   0.04324349  0.00000000  0.04073984       0.083
   0.00000000  0.03825432  0.04073984       0.083
   0.04324349  0.03825432  0.04073984       0.167
   0.00000000  0.07650864  0.04073984       0.042
   0.04324349  0.07650864  0.04073984       0.083
   0.00000000  0.00000000  0.08147967       0.021
   0.04324349  0.00000000  0.08147967       0.042
   0.00000000  0.03825432  0.08147967       0.042
   0.04324349  0.03825432  0.08147967       0.083
   0.00000000  0.07650864  0.08147967       0.021
   0.04324349  0.07650864  0.08147967       0.042
 
 k-points in reciprocal lattice and weights: read from INCAR                         
   0.00000000  0.00000000  0.00000000       0.021
   0.33333333  0.00000000  0.00000000       0.042
   0.00000000  0.25000000  0.00000000       0.042
   0.33333333  0.25000000  0.00000000       0.083
   0.00000000  0.50000000  0.00000000       0.021
   0.33333333  0.50000000  0.00000000       0.042
   0.00000000  0.00000000  0.25000000       0.042
   0.33333333  0.00000000  0.25000000       0.083
   0.00000000  0.25000000  0.25000000       0.083
   0.33333333  0.25000000  0.25000000       0.167
   0.00000000  0.50000000  0.25000000       0.042
   0.33333333  0.50000000  0.25000000       0.083
   0.00000000  0.00000000  0.50000000       0.021
   0.33333333  0.00000000  0.50000000       0.042
   0.00000000  0.25000000  0.50000000       0.042
   0.33333333  0.25000000  0.50000000       0.083
   0.00000000  0.50000000  0.50000000       0.021
   0.33333333  0.50000000  0.50000000       0.042
 
 position of ions in fractional coordinates (direct lattice) 
   0.75020000  0.66910000  0.51790000
   0.24980000  0.66910000  0.51790000
   0.74980000  0.33090000  0.01790000
   0.25020000  0.33090000  0.01790000
   0.50000000  0.85500000  0.98600000
   0.00000000  0.14500000  0.48600000
   0.50000000  0.17820000  0.49420000
   0.00000000  0.82180000  0.99420000
   0.71850000  0.32830000  0.38570000
   0.28150000  0.32830000  0.38570000
   0.78150000  0.67170000  0.88570000
   0.21850000  0.67170000  0.88570000
   0.50000000  0.89170000  0.38800000
   0.00000000  0.10830000  0.88800000
   0.50000000  0.19510000  0.82300000
   0.00000000  0.80490000  0.32300000
 
 position of ions in cartesian coordinates  (Angst):
   5.78275916  4.37270901  3.17809335
   1.92553084  4.37270901  3.17809335
   5.77967584  2.16250099  0.10984335
   1.92861416  2.16250099  0.10984335
   3.85414500  5.58760455  6.05058900
   0.00000000  0.94760545  2.98233900
   3.85414500  1.16457442  3.03265830
   0.00000000  5.37063558  6.10090830
   5.53840636  2.14550944  2.36684805
   2.16988364  2.14550944  2.36684805
   6.02402864  4.38970056  5.43509805
   1.68426136  4.38970056  5.43509805
   3.85414500  5.82744676  2.38096200
   0.00000000  0.70776324  5.44921200
   3.85414500  1.27501947  5.05033950
   0.00000000  5.26019053  1.98208950
 


--------------------------------------------------------------------------------------------------------


 k-point   1 :   0.0000 0.0000 0.0000  plane waves:    5617
 k-point   2 :   0.3333 0.0000 0.0000  plane waves:    5615
 k-point   3 :   0.0000 0.2500 0.0000  plane waves:    5599
 k-point   4 :   0.3333 0.2500 0.0000  plane waves:    5600
 k-point   5 :   0.0000 0.5000 0.0000  plane waves:    5578
 k-point   6 :   0.3333 0.5000 0.0000  plane waves:    5600
 k-point   7 :   0.0000 0.0000 0.2500  plane waves:    5646
 k-point   8 :   0.3333 0.0000 0.2500  plane waves:    5613
 k-point   9 :   0.0000 0.2500 0.2500  plane waves:    5616
 k-point  10 :   0.3333 0.2500 0.2500  plane waves:    5614
 k-point  11 :   0.0000 0.5000 0.2500  plane waves:    5594
 k-point  12 :   0.3333 0.5000 0.2500  plane waves:    5624
 k-point  13 :   0.0000 0.0000 0.5000  plane waves:    5624
 k-point  14 :   0.3333 0.0000 0.5000  plane waves:    5606
 k-point  15 :   0.0000 0.2500 0.5000  plane waves:    5632
 k-point  16 :   0.3333 0.2500 0.5000  plane waves:    5622
 k-point  17 :   0.0000 0.5000 0.5000  plane waves:    5636
 k-point  18 :   0.3333 0.5000 0.5000  plane waves:    5620

 maximum and minimum number of plane-waves per node :       367      333

 maximum number of plane-waves:      5646
 maximum index in each direction: 
   IXMAX=   12   IYMAX=   10   IZMAX=   10
   IXMIN=  -12   IYMIN=  -11   IZMIN=  -10


 real space projection operators:
  total allocation   :        765.91 KBytes
  max/ min on nodes  :         61.27         34.97


 parallel 3D FFT for wavefunctions:
    minimum data exchange during FFTs selected (reduces bandwidth)
 parallel 3D FFT for charge:
    minimum data exchange during FFTs selected (reduces bandwidth)


 total amount of memory used by VASP MPI-rank0    31591. kBytes
=======================================================================

   base      :      30000. kBytes
   nonlr-proj:        341. kBytes
   fftplans  :        244. kBytes
   grid      :        368. kBytes
   one-center:          3. kBytes
   wavefun   :        635. kBytes
 
     INWAV:  cpu time    0.0000: real time    0.0000
 Broyden mixing: mesh for mixing (old mesh)
   NGX = 25   NGY = 21   NGZ = 21
  (NGX  = 80   NGY  = 64   NGZ  = 60)
  gives a total of  11025 points

 initial charge density was supplied:
 charge density of overlapping atoms calculated
 number of electron      64.0000000 magnetization 
 keeping initial charge density in first step


--------------------------------------------------------------------------------------------------------


 Maximum index for non-local projection operator          114
 Maximum index for augmentation-charges          287 (set IRDMAX)


--------------------------------------------------------------------------------------------------------


 First call to EWALD:  gamma=   0.262
 Maximum number of real-space cells 2x 3x 3
 Maximum number of reciprocal cells 3x 3x 3

    FEWALD:  cpu time    0.0015: real time    0.0015


--------------------------------------- Iteration      1(   1)  ---------------------------------------


    POTLOK:  cpu time    0.0073: real time    0.0094
    SETDIJ:  cpu time    0.0404: real time    0.0408
     EDDAV:  cpu time    0.4588: real time    0.4651
       DOS:  cpu time    0.0014: real time    0.0019
    --------------------------------------------
      LOOP:  cpu time    0.5079: real time    0.5173

 eigenvalue-minimisations  :  1728
 total energy-change (2. order) : 0.2695075E+03  (-0.2181981E+04)
 number of electron      64.0000000 magnetization 
 augmentation part       64.0000000 magnetization 

 Free energy of the ion-electron system (eV)
  ---------------------------------------------------
  alpha Z        PSCENC =        53.22498650
  Ewald energy   TEWEN  =     -2082.17725705
  -Hartree energ DENC   =      -555.27556779
  -exchange      EXHF   =         0.00000000
  -V(xc)+E(xc)   XCENC  =        81.56953856
  PAW double counting   =      2065.36880927    -1990.17295160
  entropy T*S    EENTRO =        -0.01175171
  eigenvalues    EBANDS =        98.55247428
  atomic energy  EATOM  =      2598.42919538
  Solvation  Ediel_sol  =         0.00000000
  ---------------------------------------------------
  free energy    TOTEN  =       269.50747585 eV

  energy without entropy =      269.51922756  energy(sigma->0) =      269.51335171


--------------------------------------------------------------------------------------------------------




--------------------------------------- Iteration      1(   2)  ---------------------------------------


     EDDAV:  cpu time    0.6096: real time    0.6688
       DOS:  cpu time    0.0043: real time    0.0043
    --------------------------------------------
      LOOP:  cpu time    0.6139: real time    0.6730

 eigenvalue-minimisations  :  2240
 total energy-change (2. order) :-0.3149375E+03  (-0.3005489E+03)
 number of electron      64.0000000 magnetization 
 augmentation part       64.0000000 magnetization 

 Free energy of the ion-electron system (eV)
  ---------------------------------------------------
  alpha Z        PSCENC =        53.22498650
  Ewald energy   TEWEN  =     -2082.17725705
  -Hartree energ DENC   =      -555.27556779
  -exchange      EXHF   =         0.00000000
  -V(xc)+E(xc)   XCENC  =        81.56953856
  PAW double counting   =      2065.36880927    -1990.17295160
  entropy T*S    EENTRO =        -0.00000000
  eigenvalues    EBANDS =      -216.39677049
  atomic energy  EATOM  =      2598.42919538
  Solvation  Ediel_sol  =         0.00000000
  ---------------------------------------------------
  free energy    TOTEN  =       -45.43001721 eV

  energy without entropy =      -45.43001721  energy(sigma->0) =      -45.43001721


--------------------------------------------------------------------------------------------------------




--------------------------------------- Iteration      1(   3)  ---------------------------------------


     EDDAV:  cpu time    0.5119: real time    0.5121
       DOS:  cpu time    0.0004: real time    0.0004
    --------------------------------------------
      LOOP:  cpu time    0.5123: real time    0.5125

 eigenvalue-minimisations  :  2232
 total energy-change (2. order) :-0.2632149E+02  (-0.2614547E+02)
 number of electron      64.0000000 magnetization 
 augmentation part       64.0000000 magnetization 

 Free energy of the ion-electron system (eV)
  ---------------------------------------------------
  alpha Z        PSCENC =        53.22498650
  Ewald energy   TEWEN  =     -2082.17725705
  -Hartree energ DENC   =      -555.27556779
  -exchange      EXHF   =         0.00000000
  -V(xc)+E(xc)   XCENC  =        81.56953856
  PAW double counting   =      2065.36880927    -1990.17295160
  entropy T*S    EENTRO =        -0.00000000
  eigenvalues    EBANDS =      -242.71826388
  atomic energy  EATOM  =      2598.42919538
  Solvation  Ediel_sol  =         0.00000000
  ---------------------------------------------------
  free energy    TOTEN  =       -71.75151059 eV

  energy without entropy =      -71.75151059  energy(sigma->0) =      -71.75151059


--------------------------------------------------------------------------------------------------------




--------------------------------------- Iteration      1(   4)  ---------------------------------------


     EDDAV:  cpu time    0.4962: real time    0.4971
       DOS:  cpu time    0.0004: real time    0.0004
    --------------------------------------------
      LOOP:  cpu time    0.4966: real time    0.4976

 eigenvalue-minimisations  :  2168
 total energy-change (2. order) :-0.4752863E+00  (-0.4744439E+00)
 number of electron      64.0000000 magnetization 
 augmentation part       64.0000000 magnetization 

 Free energy of the ion-electron system (eV)
  ---------------------------------------------------
  alpha Z        PSCENC =        53.22498650
  Ewald energy   TEWEN  =     -2082.17725705
  -Hartree energ DENC   =      -555.27556779
  -exchange      EXHF   =         0.00000000
  -V(xc)+E(xc)   XCENC  =        81.56953856
  PAW double counting   =      2065.36880927    -1990.17295160
  entropy T*S    EENTRO =        -0.00000000
  eigenvalues    EBANDS =      -243.19355013
  atomic energy  EATOM  =      2598.42919538
  Solvation  Ediel_sol  =         0.00000000
  ---------------------------------------------------
  free energy    TOTEN  =       -72.22679685 eV

  energy without entropy =      -72.22679685  energy(sigma->0) =      -72.22679685


--------------------------------------------------------------------------------------------------------




--------------------------------------- Iteration      1(   5)  ---------------------------------------


     EDDAV:  cpu time    0.4834: real time    0.4839
       DOS:  cpu time    0.0004: real time    0.0004
    CHARGE:  cpu time    0.0130: real time    0.0149
    MIXING:  cpu time    0.0032: real time    0.0043
    --------------------------------------------
      LOOP:  cpu time    0.5001: real time    0.5035

 eigenvalue-minimisations  :  2152
 total energy-change (2. order) :-0.1260955E-01  (-0.1260609E-01)
 number of electron      63.9999971 magnetization 
 augmentation part       -7.6633714 magnetization 

 Broyden mixing:
  rms(total) = 0.22143E+01    rms(broyden)= 0.22143E+01
  rms(prec ) = 0.24674E+01
  weight for this iteration     100.00

 Free energy of the ion-electron system (eV)
  ---------------------------------------------------
  alpha Z        PSCENC =        53.22498650
  Ewald energy   TEWEN  =     -2082.17725705
  -Hartree energ DENC   =      -555.27556779
  -exchange      EXHF   =         0.00000000
  -V(xc)+E(xc)   XCENC  =        81.56953856
  PAW double counting   =      2065.36880927    -1990.17295160
  entropy T*S    EENTRO =        -0.00000000
  eigenvalues    EBANDS =      -243.20615968
  atomic energy  EATOM  =      2598.42919538
  Solvation  Ediel_sol  =         0.00000000
  ---------------------------------------------------
  free energy    TOTEN  =       -72.23940640 eV

  energy without entropy =      -72.23940640  energy(sigma->0) =      -72.23940640


--------------------------------------------------------------------------------------------------------




--------------------------------------- Iteration      1(   6)  ---------------------------------------


    POTLOK:  cpu time    0.0099: real time    0.0099
    SETDIJ:  cpu time    0.0433: real time    0.0432
    EDDIAG:  cpu time    0.2602: real time    0.3639
  RMM-DIIS:  cpu time    0.1120: real time    0.1142
    ORTHCH:  cpu time    0.0173: real time    0.0173
       DOS:  cpu time    0.0009: real time    0.0009
    CHARGE:  cpu time    0.0115: real time    0.0115
    MIXING:  cpu time    0.0012: real time    0.0021
    --------------------------------------------
      LOOP:  cpu time    0.4563: real time    0.5631

 eigenvalue-minimisations  :  1728
 total energy-change (2. order) : 0.2170222E+01  (-0.3830634E+00)
 number of electron      63.9999972 magnetization 
 augmentation part       -7.5745094 magnetization 

 Broyden mixing:
  rms(total) = 0.14673E+01    rms(broyden)= 0.14673E+01
  rms(prec ) = 0.15368E+01
  weight for this iteration     100.00

 eigenvalues of (default mixing * dielectric matrix)
  average eigenvalue GAMMA=   2.5133
  2.5133

 Free energy of the ion-electron system (eV)
  ---------------------------------------------------
  alpha Z        PSCENC =        53.22498650
  Ewald energy   TEWEN  =     -2082.17725705
  -Hartree energ DENC   =      -572.43399005
  -exchange      EXHF   =         0.00000000
  -V(xc)+E(xc)   XCENC  =        83.70842202
  PAW double counting   =      3524.40597413    -3450.30835382
  entropy T*S    EENTRO =        -0.00000000
  eigenvalues    EBANDS =      -224.91816157
  atomic energy  EATOM  =      2598.42919538
  Solvation  Ediel_sol  =         0.00000000
  ---------------------------------------------------
  free energy    TOTEN  =       -70.06918445 eV

  energy without entropy =      -70.06918445  energy(sigma->0) =      -70.06918445


--------------------------------------------------------------------------------------------------------




--------------------------------------- Iteration      1(   7)  ---------------------------------------


    POTLOK:  cpu time    0.0141: real time    0.0162
    SETDIJ:  cpu time    0.0429: real time    0.0429
    EDDIAG:  cpu time    0.1410: real time    0.1417
  RMM-DIIS:  cpu time    0.0510: real time    0.0510
    ORTHCH:  cpu time    0.0124: real time    0.0124
       DOS:  cpu time    0.0004: real time    0.0004
    CHARGE:  cpu time    0.0067: real time    0.0067
    MIXING:  cpu time    0.0004: real time    0.0004
    --------------------------------------------
      LOOP:  cpu time    0.2689: real time    0.2716

 eigenvalue-minimisations  :  1728
 total energy-change (2. order) : 0.4419856E-01  (-0.2678310E+00)
 number of electron      63.9999973 magnetization 
 augmentation part       -7.4743989 magnetization 

 Broyden mixing:
  rms(total) = 0.49071E+00    rms(broyden)= 0.49071E+00
  rms(prec ) = 0.52503E+00
  weight for this iteration     100.00

 eigenvalues of (default mixing * dielectric matrix)
  average eigenvalue GAMMA=   2.0899
  1.6226  2.5572

 Free energy of the ion-electron system (eV)
  ---------------------------------------------------
  alpha Z        PSCENC =        53.22498650
  Ewald energy   TEWEN  =     -2082.17725705
  -Hartree energ DENC   =      -592.11054593
  -exchange      EXHF   =         0.00000000
  -V(xc)+E(xc)   XCENC  =        86.01356569
  PAW double counting   =      6218.65825935    -6145.58917036
  entropy T*S    EENTRO =        -0.00000000
  eigenvalues    EBANDS =      -206.47401949
  atomic energy  EATOM  =      2598.42919538
  Solvation  Ediel_sol  =         0.00000000
  ---------------------------------------------------
  free energy    TOTEN  =       -70.02498589 eV

  energy without entropy =      -70.02498589  energy(sigma->0) =      -70.02498589


--------------------------------------------------------------------------------------------------------




--------------------------------------- Iteration      1(   8)  ---------------------------------------


    POTLOK:  cpu time    0.0044: real time    0.0044
    SETDIJ:  cpu time    0.0398: real time    0.0398
    EDDIAG:  cpu time    0.1350: real time    0.1352
  RMM-DIIS:  cpu time    0.0509: real time    0.0509
    ORTHCH:  cpu time    0.0119: real time    0.0119
       DOS:  cpu time    0.0004: real time    0.0004
    CHARGE:  cpu time    0.0066: real time    0.0066
    MIXING:  cpu time    0.0003: real time    0.0003
    --------------------------------------------
      LOOP:  cpu time    0.2493: real time    0.2495

 eigenvalue-minimisations  :  1728
 total energy-change (2. order) : 0.4875452E-01  (-0.2829510E-01)
 number of electron      63.9999973 magnetization 
 augmentation part       -7.4882020 magnetization 

 Broyden mixing:
  rms(total) = 0.63727E-01    rms(broyden)= 0.63726E-01
  rms(prec ) = 0.75620E-01
  weight for this iteration     100.00

 eigenvalues of (default mixing * dielectric matrix)
  average eigenvalue GAMMA=   1.7637
  2.4706  1.1909  1.6295

 Free energy of the ion-electron system (eV)
  ---------------------------------------------------
  alpha Z        PSCENC =        53.22498650
  Ewald energy   TEWEN  =     -2082.17725705
  -Hartree energ DENC   =      -592.18448307
  -exchange      EXHF   =         0.00000000
  -V(xc)+E(xc)   XCENC  =        86.16447386
  PAW double counting   =      7205.75301124    -7132.60268169
  entropy T*S    EENTRO =        -0.00000000
  eigenvalues    EBANDS =      -206.58347653
  atomic energy  EATOM  =      2598.42919538
  Solvation  Ediel_sol  =         0.00000000
  ---------------------------------------------------
  free energy    TOTEN  =       -69.97623137 eV

  energy without entropy =      -69.97623137  energy(sigma->0) =      -69.97623137


--------------------------------------------------------------------------------------------------------




--------------------------------------- Iteration      1(   9)  ---------------------------------------


    POTLOK:  cpu time    0.0045: real time    0.0045
    SETDIJ:  cpu time    0.0400: real time    0.0400
    EDDIAG:  cpu time    0.1333: real time    0.1337
  RMM-DIIS:  cpu time    0.0553: real time    0.0553
    ORTHCH:  cpu time    0.0118: real time    0.0118
       DOS:  cpu time    0.0004: real time    0.0004
    CHARGE:  cpu time    0.0065: real time    0.0065
    MIXING:  cpu time    0.0003: real time    0.0003
    --------------------------------------------
      LOOP:  cpu time    0.2522: real time    0.2525

 eigenvalue-minimisations  :  1764
 total energy-change (2. order) :-0.5758956E-03  (-0.2662800E-02)
 number of electron      63.9999973 magnetization 
 augmentation part       -7.4955225 magnetization 

 Broyden mixing:
  rms(total) = 0.58870E-01    rms(broyden)= 0.58870E-01
  rms(prec ) = 0.60880E-01
  weight for this iteration     100.00

 eigenvalues of (default mixing * dielectric matrix)
  average eigenvalue GAMMA=   1.9352
  2.6202  1.3432  1.3432  2.4343

 Free energy of the ion-electron system (eV)
  ---------------------------------------------------
  alpha Z        PSCENC =        53.22498650
  Ewald energy   TEWEN  =     -2082.17725705
  -Hartree energ DENC   =      -591.76033046
  -exchange      EXHF   =         0.00000000
  -V(xc)+E(xc)   XCENC  =        86.17085297
  PAW double counting   =      7169.37995204    -7096.21016685
  entropy T*S    EENTRO =        -0.00000000
  eigenvalues    EBANDS =      -207.03403978
  atomic energy  EATOM  =      2598.42919538
  Solvation  Ediel_sol  =         0.00000000
  ---------------------------------------------------
  free energy    TOTEN  =       -69.97680726 eV

  energy without entropy =      -69.97680726  energy(sigma->0) =      -69.97680726


--------------------------------------------------------------------------------------------------------




--------------------------------------- Iteration      1(  10)  ---------------------------------------


    POTLOK:  cpu time    0.0044: real time    0.0044
    SETDIJ:  cpu time    0.0401: real time    0.0402
    EDDIAG:  cpu time    0.1352: real time    0.1358
  RMM-DIIS:  cpu time    0.0548: real time    0.0548
    ORTHCH:  cpu time    0.0119: real time    0.0119
       DOS:  cpu time    0.0004: real time    0.0004
    CHARGE:  cpu time    0.0066: real time    0.0066
    MIXING:  cpu time    0.0004: real time    0.0004
    --------------------------------------------
      LOOP:  cpu time    0.2539: real time    0.2545

 eigenvalue-minimisations  :  1846
 total energy-change (2. order) :-0.2353771E-03  (-0.5039091E-03)
 number of electron      63.9999973 magnetization 
 augmentation part       -7.4960714 magnetization 

 Broyden mixing:
  rms(total) = 0.79222E-01    rms(broyden)= 0.79222E-01
  rms(prec ) = 0.81813E-01
  weight for this iteration     100.00

 eigenvalues of (default mixing * dielectric matrix)
  average eigenvalue GAMMA=   1.6253
  2.6425  1.4086  1.4086  1.3335  1.3335

 Free energy of the ion-electron system (eV)
  ---------------------------------------------------
  alpha Z        PSCENC =        53.22498650
  Ewald energy   TEWEN  =     -2082.17725705
  -Hartree energ DENC   =      -591.85900005
  -exchange      EXHF   =         0.00000000
  -V(xc)+E(xc)   XCENC  =        86.18079422
  PAW double counting   =      7210.86482429    -7137.70563452
  entropy T*S    EENTRO =        -0.00000000
  eigenvalues    EBANDS =      -206.93495141
  atomic energy  EATOM  =      2598.42919538
  Solvation  Ediel_sol  =         0.00000000
  ---------------------------------------------------
  free energy    TOTEN  =       -69.97704264 eV

  energy without entropy =      -69.97704264  energy(sigma->0) =      -69.97704264


--------------------------------------------------------------------------------------------------------




--------------------------------------- Iteration      1(  11)  ---------------------------------------


    POTLOK:  cpu time    0.0053: real time    0.0053
    SETDIJ:  cpu time    0.0401: real time    0.0401
    EDDIAG:  cpu time    0.1340: real time    0.1344
  RMM-DIIS:  cpu time    0.0519: real time    0.0519
    ORTHCH:  cpu time    0.0119: real time    0.0119
       DOS:  cpu time    0.0004: real time    0.0004
    CHARGE:  cpu time    0.0065: real time    0.0065
    MIXING:  cpu time    0.0003: real time    0.0003
    --------------------------------------------
      LOOP:  cpu time    0.2505: real time    0.2509

 eigenvalue-minimisations  :  1728
 total energy-change (2. order) :-0.1755509E-02  (-0.4893571E-03)
 number of electron      63.9999973 magnetization 
 augmentation part       -7.4985299 magnetization 

 Broyden mixing:
  rms(total) = 0.17513E-01    rms(broyden)= 0.17513E-01
  rms(prec ) = 0.19084E-01
  weight for this iteration     100.00

 eigenvalues of (default mixing * dielectric matrix)
  average eigenvalue GAMMA=   1.5708
  2.6247  2.6247  1.3651  1.3651  0.8614  0.5839

 Free energy of the ion-electron system (eV)
  ---------------------------------------------------
  alpha Z        PSCENC =        53.22498650
  Ewald energy   TEWEN  =     -2082.17725705
  -Hartree energ DENC   =      -591.75121005
  -exchange      EXHF   =         0.00000000
  -V(xc)+E(xc)   XCENC  =        86.17937290
  PAW double counting   =      7119.69713719    -7046.50595776
  entropy T*S    EENTRO =        -0.00000000
  eigenvalues    EBANDS =      -207.07506527
  atomic energy  EATOM  =      2598.42919538
  Solvation  Ediel_sol  =         0.00000000
  ---------------------------------------------------
  free energy    TOTEN  =       -69.97879815 eV

  energy without entropy =      -69.97879815  energy(sigma->0) =      -69.97879815


--------------------------------------------------------------------------------------------------------




--------------------------------------- Iteration      1(  12)  ---------------------------------------


    POTLOK:  cpu time    0.0044: real time    0.0044
    SETDIJ:  cpu time    0.0401: real time    0.0401
    EDDIAG:  cpu time    0.1350: real time    0.1354
  RMM-DIIS:  cpu time    0.0507: real time    0.0507
    ORTHCH:  cpu time    0.0119: real time    0.0118
       DOS:  cpu time    0.0004: real time    0.0004
    CHARGE:  cpu time    0.0065: real time    0.0065
    MIXING:  cpu time    0.0004: real time    0.0004
    --------------------------------------------
      LOOP:  cpu time    0.2493: real time    0.2498

 eigenvalue-minimisations  :  1729
 total energy-change (2. order) :-0.1498853E-03  (-0.1260243E-03)
 number of electron      63.9999973 magnetization 
 augmentation part       -7.4987060 magnetization 

 Broyden mixing:
  rms(total) = 0.11441E-01    rms(broyden)= 0.11441E-01
  rms(prec ) = 0.13506E-01
  weight for this iteration     100.00

 eigenvalues of (default mixing * dielectric matrix)
  average eigenvalue GAMMA=   1.3916
  2.6359  2.6359  1.3555  1.3555  0.8478  0.6613  0.2494

 Free energy of the ion-electron system (eV)
  ---------------------------------------------------
  alpha Z        PSCENC =        53.22498650
  Ewald energy   TEWEN  =     -2082.17725705
  -Hartree energ DENC   =      -591.90293680
  -exchange      EXHF   =         0.00000000
  -V(xc)+E(xc)   XCENC  =        86.18571886
  PAW double counting   =      7091.68871411    -7018.49661765
  entropy T*S    EENTRO =        -0.00000000
  eigenvalues    EBANDS =      -206.93075139
  atomic energy  EATOM  =      2598.42919538
  Solvation  Ediel_sol  =         0.00000000
  ---------------------------------------------------
  free energy    TOTEN  =       -69.97894803 eV

  energy without entropy =      -69.97894803  energy(sigma->0) =      -69.97894803


--------------------------------------------------------------------------------------------------------




--------------------------------------- Iteration      1(  13)  ---------------------------------------


    POTLOK:  cpu time    0.0046: real time    0.0046
    SETDIJ:  cpu time    0.0400: real time    0.0400
    EDDIAG:  cpu time    0.1337: real time    0.1341
  RMM-DIIS:  cpu time    0.0537: real time    0.0537
    ORTHCH:  cpu time    0.0118: real time    0.0118
       DOS:  cpu time    0.0004: real time    0.0004
    CHARGE:  cpu time    0.0066: real time    0.0066
    MIXING:  cpu time    0.0003: real time    0.0003
    --------------------------------------------
      LOOP:  cpu time    0.2512: real time    0.2516

 eigenvalue-minimisations  :  1793
 total energy-change (2. order) :-0.2405089E-04  (-0.1653778E-04)
 number of electron      63.9999973 magnetization 
 augmentation part       -7.4989473 magnetization 

 Broyden mixing:
  rms(total) = 0.12550E-01    rms(broyden)= 0.12550E-01
  rms(prec ) = 0.14780E-01
  weight for this iteration     100.00

 eigenvalues of (default mixing * dielectric matrix)
  average eigenvalue GAMMA=   1.2732
  2.6514  2.6514  1.3464  1.3464  0.8480  0.6162  0.3630  0.3630

 Free energy of the ion-electron system (eV)
  ---------------------------------------------------
  alpha Z        PSCENC =        53.22498650
  Ewald energy   TEWEN  =     -2082.17725705
  -Hartree energ DENC   =      -591.89362563
  -exchange      EXHF   =         0.00000000
  -V(xc)+E(xc)   XCENC  =        86.18529732
  PAW double counting   =      7092.10923910    -7018.91693197
  entropy T*S    EENTRO =        -0.00000000
  eigenvalues    EBANDS =      -206.93987574
  atomic energy  EATOM  =      2598.42919538
  Solvation  Ediel_sol  =         0.00000000
  ---------------------------------------------------
  free energy    TOTEN  =       -69.97897209 eV

  energy without entropy =      -69.97897209  energy(sigma->0) =      -69.97897209


--------------------------------------------------------------------------------------------------------




--------------------------------------- Iteration      1(  14)  ---------------------------------------


    POTLOK:  cpu time    0.0045: real time    0.0045
    SETDIJ:  cpu time    0.0402: real time    0.0402
    EDDIAG:  cpu time    0.2176: real time    0.2638
  RMM-DIIS:  cpu time    0.0703: real time    0.0703
    ORTHCH:  cpu time    0.0142: real time    0.0142
       DOS:  cpu time    0.0007: real time    0.0007
    CHARGE:  cpu time    0.0070: real time    0.0070
    MIXING:  cpu time    0.0005: real time    0.0005
    --------------------------------------------
      LOOP:  cpu time    0.3550: real time    0.4012

 eigenvalue-minimisations  :  1824
 total energy-change (2. order) :-0.1717374E-04  (-0.6663651E-05)
 number of electron      63.9999973 magnetization 
 augmentation part       -7.4989430 magnetization 

 Broyden mixing:
  rms(total) = 0.14554E-01    rms(broyden)= 0.14554E-01
  rms(prec ) = 0.16709E-01
  weight for this iteration     100.00

 eigenvalues of (default mixing * dielectric matrix)
  average eigenvalue GAMMA=   1.4942
  2.6236  2.6236  1.8315  1.8315  1.2624  1.2624  0.8513  0.8513  0.3102

 Free energy of the ion-electron system (eV)
  ---------------------------------------------------
  alpha Z        PSCENC =        53.22498650
  Ewald energy   TEWEN  =     -2082.17725705
  -Hartree energ DENC   =      -591.91693688
  -exchange      EXHF   =         0.00000000
  -V(xc)+E(xc)   XCENC  =        86.18863067
  PAW double counting   =      7097.32776669    -7024.13661960
  entropy T*S    EENTRO =        -0.00000000
  eigenvalues    EBANDS =      -206.91875498
  atomic energy  EATOM  =      2598.42919538
  Solvation  Ediel_sol  =         0.00000000
  ---------------------------------------------------
  free energy    TOTEN  =       -69.97898926 eV

  energy without entropy =      -69.97898926  energy(sigma->0) =      -69.97898926


--------------------------------------------------------------------------------------------------------




--------------------------------------- Iteration      1(  15)  ---------------------------------------


    POTLOK:  cpu time    0.0051: real time    0.0051
    SETDIJ:  cpu time    0.0399: real time    0.0399
    EDDIAG:  cpu time    0.1762: real time    0.1771
  RMM-DIIS:  cpu time    0.0513: real time    0.0513
    ORTHCH:  cpu time    0.0134: real time    0.0134
       DOS:  cpu time    0.0006: real time    0.0006
    CHARGE:  cpu time    0.0071: real time    0.0071
    MIXING:  cpu time    0.0005: real time    0.0005
    --------------------------------------------
      LOOP:  cpu time    0.2941: real time    0.2950

 eigenvalue-minimisations  :  1728
 total energy-change (2. order) : 0.3324360E-04  (-0.9393851E-05)
 number of electron      63.9999973 magnetization 
 augmentation part       -7.4983839 magnetization 

 Broyden mixing:
  rms(total) = 0.21863E-01    rms(broyden)= 0.21863E-01
  rms(prec ) = 0.23145E-01
  weight for this iteration     100.00

 eigenvalues of (default mixing * dielectric matrix)
  average eigenvalue GAMMA=   1.4683
  3.0934  2.4703  1.9065  1.9065  1.2565  1.0771  0.9308  0.8586  0.8586  0.3246

 Free energy of the ion-electron system (eV)
  ---------------------------------------------------
  alpha Z        PSCENC =        53.22498650
  Ewald energy   TEWEN  =     -2082.17725705
  -Hartree energ DENC   =      -592.03419121
  -exchange      EXHF   =         0.00000000
  -V(xc)+E(xc)   XCENC  =        86.19498185
  PAW double counting   =      7094.39012841    -7021.20395766
  entropy T*S    EENTRO =        -0.00000000
  eigenvalues    EBANDS =      -206.80284224
  atomic energy  EATOM  =      2598.42919538
  Solvation  Ediel_sol  =         0.00000000
  ---------------------------------------------------
  free energy    TOTEN  =       -69.97895602 eV

  energy without entropy =      -69.97895602  energy(sigma->0) =      -69.97895602


--------------------------------------------------------------------------------------------------------




--------------------------------------- Iteration      1(  16)  ---------------------------------------


    POTLOK:  cpu time    0.0046: real time    0.0046
    SETDIJ:  cpu time    0.0402: real time    0.0402
    EDDIAG:  cpu time    0.1880: real time    0.1891
  RMM-DIIS:  cpu time    0.0660: real time    0.0660
    ORTHCH:  cpu time    0.0129: real time    0.0130
       DOS:  cpu time    0.0007: real time    0.0007
    CHARGE:  cpu time    0.0072: real time    0.0072
    MIXING:  cpu time    0.0005: real time    0.0005
    --------------------------------------------
      LOOP:  cpu time    0.3201: real time    0.3212

 eigenvalue-minimisations  :  1728
 total energy-change (2. order) : 0.7948548E-04  (-0.1350848E-04)
 number of electron      63.9999973 magnetization 
 augmentation part       -7.4973313 magnetization 

 Broyden mixing:
  rms(total) = 0.16808E-01    rms(broyden)= 0.16808E-01
  rms(prec ) = 0.17536E-01
  weight for this iteration     100.00

 eigenvalues of (default mixing * dielectric matrix)
  average eigenvalue GAMMA=   1.4093
  3.3098  2.5219  2.5219  1.4462  1.3898  0.9669  0.9669  0.8843  0.8843  0.3215
  0.2886

 Free energy of the ion-electron system (eV)
  ---------------------------------------------------
  alpha Z        PSCENC =        53.22498650
  Ewald energy   TEWEN  =     -2082.17725705
  -Hartree energ DENC   =      -592.19348781
  -exchange      EXHF   =         0.00000000
  -V(xc)+E(xc)   XCENC  =        86.20309604
  PAW double counting   =      7086.22665136    -7013.04373936
  entropy T*S    EENTRO =        -0.00000000
  eigenvalues    EBANDS =      -206.64832160
  atomic energy  EATOM  =      2598.42919538
  Solvation  Ediel_sol  =         0.00000000
  ---------------------------------------------------
  free energy    TOTEN  =       -69.97887653 eV

  energy without entropy =      -69.97887653  energy(sigma->0) =      -69.97887653


--------------------------------------------------------------------------------------------------------




--------------------------------------- Iteration      1(  17)  ---------------------------------------


    POTLOK:  cpu time    0.0045: real time    0.0045
    SETDIJ:  cpu time    0.0399: real time    0.0399
    EDDIAG:  cpu time    0.2301: real time    0.2318
  RMM-DIIS:  cpu time    0.1181: real time    0.1181
    ORTHCH:  cpu time    0.0144: real time    0.0144
       DOS:  cpu time    0.0043: real time    0.0043
    CHARGE:  cpu time    0.0121: real time    0.0121
    MIXING:  cpu time    0.0008: real time    0.0008
    --------------------------------------------
      LOOP:  cpu time    0.4242: real time    0.4260

 eigenvalue-minimisations  :  1728
 total energy-change (2. order) :-0.1993042E-05  (-0.1237625E-05)
 number of electron      63.9999973 magnetization 
 augmentation part       -7.4972193 magnetization 

 Broyden mixing:
  rms(total) = 0.16990E-01    rms(broyden)= 0.16990E-01
  rms(prec ) = 0.17730E-01
  weight for this iteration     100.00

 eigenvalues of (default mixing * dielectric matrix)
  average eigenvalue GAMMA=   1.3280
  3.3892  2.5922  2.5922  1.3998  1.3998  0.9498  0.9498  0.8812  0.8812  0.3207
  0.2900  0.2900

 Free energy of the ion-electron system (eV)
  ---------------------------------------------------
  alpha Z        PSCENC =        53.22498650
  Ewald energy   TEWEN  =     -2082.17725705
  -Hartree energ DENC   =      -592.19546203
  -exchange      EXHF   =         0.00000000
  -V(xc)+E(xc)   XCENC  =        86.20330716
  PAW double counting   =      7086.44840300    -7013.26575625
  entropy T*S    EENTRO =        -0.00000000
  eigenvalues    EBANDS =      -206.64629524
  atomic energy  EATOM  =      2598.42919538
  Solvation  Ediel_sol  =         0.00000000
  ---------------------------------------------------
  free energy    TOTEN  =       -69.97887852 eV

  energy without entropy =      -69.97887852  energy(sigma->0) =      -69.97887852


--------------------------------------------------------------------------------------------------------




--------------------------------------- Iteration      1(  18)  ---------------------------------------


    POTLOK:  cpu time    0.0150: real time    0.0174
    SETDIJ:  cpu time    0.0429: real time    0.0429
    EDDIAG:  cpu time    0.1836: real time    0.1839
  RMM-DIIS:  cpu time    0.0792: real time    0.0792
    ORTHCH:  cpu time    0.0141: real time    0.0141
       DOS:  cpu time    0.0007: real time    0.0007
    CHARGE:  cpu time    0.0071: real time    0.0071
    MIXING:  cpu time    0.0007: real time    0.0007
    --------------------------------------------
      LOOP:  cpu time    0.3432: real time    0.3460

 eigenvalue-minimisations  :  1764
 total energy-change (2. order) : 0.2669346E-05  (-0.5529918E-06)
 number of electron      63.9999973 magnetization 
 augmentation part       -7.4970985 magnetization 

 Broyden mixing:
  rms(total) = 0.16517E-01    rms(broyden)= 0.16517E-01
  rms(prec ) = 0.17235E-01
  weight for this iteration     100.00

 eigenvalues of (default mixing * dielectric matrix)
  average eigenvalue GAMMA=   1.2861
  3.4007  2.5752  2.5752  1.4026  1.4026  0.9626  0.9626  0.8815  0.8815  0.5678
  0.5678  0.3218  0.2174

 Free energy of the ion-electron system (eV)
  ---------------------------------------------------
  alpha Z        PSCENC =        53.22498650
  Ewald energy   TEWEN  =     -2082.17725705
  -Hartree energ DENC   =      -592.20484180
  -exchange      EXHF   =         0.00000000
  -V(xc)+E(xc)   XCENC  =        86.20370147
  PAW double counting   =      7085.49732186    -7012.31493787
  entropy T*S    EENTRO =        -0.00000000
  eigenvalues    EBANDS =      -206.63704436
  atomic energy  EATOM  =      2598.42919538
  Solvation  Ediel_sol  =         0.00000000
  ---------------------------------------------------
  free energy    TOTEN  =       -69.97887585 eV

  energy without entropy =      -69.97887585  energy(sigma->0) =      -69.97887585


--------------------------------------------------------------------------------------------------------




--------------------------------------- Iteration      1(  19)  ---------------------------------------


    POTLOK:  cpu time    0.0046: real time    0.0046
    SETDIJ:  cpu time    0.0401: real time    0.0401
    EDDIAG:  cpu time    0.1435: real time    0.1440
  RMM-DIIS:  cpu time    0.0508: real time    0.0508
    ORTHCH:  cpu time    0.0119: real time    0.0119
       DOS:  cpu time    0.0004: real time    0.0004
    CHARGE:  cpu time    0.0070: real time    0.0070
    MIXING:  cpu time    0.0006: real time    0.0006
    --------------------------------------------
      LOOP:  cpu time    0.2589: real time    0.2594

 eigenvalue-minimisations  :  1734
 total energy-change (2. order) :-0.6756918E-06  (-0.7844048E-07)
 number of electron      63.9999973 magnetization 
 augmentation part       -7.4970984 magnetization 

 Broyden mixing:
  rms(total) = 0.16236E-01    rms(broyden)= 0.16236E-01
  rms(prec ) = 0.16968E-01
  weight for this iteration     100.00

 eigenvalues of (default mixing * dielectric matrix)
  average eigenvalue GAMMA=   1.4033
  3.4199  2.6935  2.3297  1.5522  1.5522  1.5996  1.3347  0.9568  0.9568  0.9702
  0.8477  0.5574  0.5574  0.3182

 Free energy of the ion-electron system (eV)
  ---------------------------------------------------
  alpha Z        PSCENC =        53.22498650
  Ewald energy   TEWEN  =     -2082.17725705
  -Hartree energ DENC   =      -592.20087295
  -exchange      EXHF   =         0.00000000
  -V(xc)+E(xc)   XCENC  =        86.20340273
  PAW double counting   =      7085.15668201    -7011.97412833
  entropy T*S    EENTRO =        -0.00000000
  eigenvalues    EBANDS =      -206.64088482
  atomic energy  EATOM  =      2598.42919538
  Solvation  Ediel_sol  =         0.00000000
  ---------------------------------------------------
  free energy    TOTEN  =       -69.97887653 eV

  energy without entropy =      -69.97887653  energy(sigma->0) =      -69.97887653


--------------------------------------------------------------------------------------------------------




--------------------------------------- Iteration      1(  20)  ---------------------------------------


    POTLOK:  cpu time    0.0047: real time    0.0047
    SETDIJ:  cpu time    0.0400: real time    0.0400
    EDDIAG:  cpu time    0.1344: real time    0.1345
  RMM-DIIS:  cpu time    0.0899: real time    0.1428
    ORTHCH:  cpu time    0.1224: real time    0.1765
       DOS:  cpu time    0.0004: real time    0.0004
    CHARGE:  cpu time    0.0066: real time    0.0066
    MIXING:  cpu time    0.0006: real time    0.0006
    --------------------------------------------
      LOOP:  cpu time    0.3990: real time    0.5062

 eigenvalue-minimisations  :  2273
 total energy-change (2. order) : 0.2553985E-04  (-0.5397482E-05)
 number of electron      63.9999973 magnetization 
 augmentation part       -7.4968029 magnetization 

 Broyden mixing:
  rms(total) = 0.62247E-02    rms(broyden)= 0.62247E-02
  rms(prec ) = 0.68477E-02
  weight for this iteration     100.00

 eigenvalues of (default mixing * dielectric matrix)
  average eigenvalue GAMMA=   1.3586
  3.4884  2.6119  2.4017  1.6401  1.6401  1.5291  1.3254  1.0137  0.9579  0.8752
  0.8752  0.6497  0.6497  0.3176  0.4029

 Free energy of the ion-electron system (eV)
  ---------------------------------------------------
  alpha Z        PSCENC =        53.22498650
  Ewald energy   TEWEN  =     -2082.17725705
  -Hartree energ DENC   =      -592.23912087
  -exchange      EXHF   =         0.00000000
  -V(xc)+E(xc)   XCENC  =        86.20307619
  PAW double counting   =      7073.71704662    -7000.53282033
  entropy T*S    EENTRO =        -0.00000000
  eigenvalues    EBANDS =      -206.60395744
  atomic energy  EATOM  =      2598.42919538
  Solvation  Ediel_sol  =         0.00000000
  ---------------------------------------------------
  free energy    TOTEN  =       -69.97885099 eV

  energy without entropy =      -69.97885099  energy(sigma->0) =      -69.97885099


--------------------------------------------------------------------------------------------------------




--------------------------------------- Iteration      1(  21)  ---------------------------------------


    POTLOK:  cpu time    0.0051: real time    0.0051
    SETDIJ:  cpu time    0.0394: real time    0.0394
    EDDIAG:  cpu time    0.1344: real time    0.1348
  RMM-DIIS:  cpu time    0.0544: real time    0.0544
    ORTHCH:  cpu time    0.0119: real time    0.0119
       DOS:  cpu time    0.0004: real time    0.0004
    CHARGE:  cpu time    0.0065: real time    0.0065
    MIXING:  cpu time    0.0006: real time    0.0006
    --------------------------------------------
      LOOP:  cpu time    0.2526: real time    0.2531

 eigenvalue-minimisations  :  1760
 total energy-change (2. order) : 0.3288918E-05  (-0.3825049E-06)
 number of electron      63.9999973 magnetization 
 augmentation part       -7.4967176 magnetization 

 Broyden mixing:
  rms(total) = 0.52463E-02    rms(broyden)= 0.52463E-02
  rms(prec ) = 0.57763E-02
  weight for this iteration     100.00

 eigenvalues of (default mixing * dielectric matrix)
  average eigenvalue GAMMA=   1.3431
  3.4988  2.6006  2.4125  1.7738  1.7738  1.4872  1.3596  0.7765  0.7765  0.9864
  0.9864  0.8852  0.8852  0.3180  0.4849  0.4849

 Free energy of the ion-electron system (eV)
  ---------------------------------------------------
  alpha Z        PSCENC =        53.22498650
  Ewald energy   TEWEN  =     -2082.17725705
  -Hartree energ DENC   =      -592.25641786
  -exchange      EXHF   =         0.00000000
  -V(xc)+E(xc)   XCENC  =        86.20392131
  PAW double counting   =      7073.48995496    -7000.30586578
  entropy T*S    EENTRO =        -0.00000000
  eigenvalues    EBANDS =      -206.58736517
  atomic energy  EATOM  =      2598.42919538
  Solvation  Ediel_sol  =         0.00000000
  ---------------------------------------------------
  free energy    TOTEN  =       -69.97884770 eV

  energy without entropy =      -69.97884770  energy(sigma->0) =      -69.97884770


--------------------------------------------------------------------------------------------------------




--------------------------------------- Iteration      1(  22)  ---------------------------------------


    POTLOK:  cpu time    0.0045: real time    0.0045
    SETDIJ:  cpu time    0.0401: real time    0.0401
    EDDIAG:  cpu time    0.1346: real time    0.1350
  RMM-DIIS:  cpu time    0.0578: real time    0.0579
    ORTHCH:  cpu time    0.0126: real time    0.0126
       DOS:  cpu time    0.0005: real time    0.0005
    CHARGE:  cpu time    0.0066: real time    0.0066
    MIXING:  cpu time    0.0007: real time    0.0007
    --------------------------------------------
      LOOP:  cpu time    0.2575: real time    0.2579

 eigenvalue-minimisations  :  1945
 total energy-change (2. order) : 0.3606738E-05  (-0.8231901E-06)
 number of electron      63.9999973 magnetization 
 augmentation part       -7.4965570 magnetization 

 Broyden mixing:
  rms(total) = 0.35146E-02    rms(broyden)= 0.35146E-02
  rms(prec ) = 0.38769E-02
  weight for this iteration     100.00

 eigenvalues of (default mixing * dielectric matrix)
  average eigenvalue GAMMA=   1.3953
  3.4481  2.1330  2.1330  2.7052  2.3417  1.0691  1.0691  1.5740  1.3852  0.9859
  0.9859  0.9102  0.9102  0.6523  0.6523  0.3179  0.4471

 Free energy of the ion-electron system (eV)
  ---------------------------------------------------
  alpha Z        PSCENC =        53.22498650
  Ewald energy   TEWEN  =     -2082.17725705
  -Hartree energ DENC   =      -592.28388207
  -exchange      EXHF   =         0.00000000
  -V(xc)+E(xc)   XCENC  =        86.20530997
  PAW double counting   =      7073.61313868    -7000.42914080
  entropy T*S    EENTRO =        -0.00000000
  eigenvalues    EBANDS =      -206.56119472
  atomic energy  EATOM  =      2598.42919538
  Solvation  Ediel_sol  =         0.00000000
  ---------------------------------------------------
  free energy    TOTEN  =       -69.97884409 eV

  energy without entropy =      -69.97884409  energy(sigma->0) =      -69.97884409


--------------------------------------------------------------------------------------------------------




--------------------------------------- Iteration      1(  23)  ---------------------------------------


    POTLOK:  cpu time    0.0046: real time    0.0046
    SETDIJ:  cpu time    0.0403: real time    0.0403
    EDDIAG:  cpu time    0.1352: real time    0.1354
  RMM-DIIS:  cpu time    0.0587: real time    0.0587
    ORTHCH:  cpu time    0.0119: real time    0.0119
       DOS:  cpu time    0.0004: real time    0.0004
    CHARGE:  cpu time    0.0066: real time    0.0066
    MIXING:  cpu time    0.0006: real time    0.0006
    --------------------------------------------
      LOOP:  cpu time    0.2582: real time    0.2584

 eigenvalue-minimisations  :  1879
 total energy-change (2. order) : 0.2361459E-05  (-0.6635046E-06)
 number of electron      63.9999973 magnetization 
 augmentation part       -7.4964517 magnetization 

 Broyden mixing:
  rms(total) = 0.17064E-02    rms(broyden)= 0.17064E-02
  rms(prec ) = 0.19575E-02
  weight for this iteration     100.00

 eigenvalues of (default mixing * dielectric matrix)
  average eigenvalue GAMMA=   1.4184
  3.2383  2.3118  2.3118  2.7259  2.3288  1.2403  1.2403  1.5665  1.3910  0.9528
  0.9528  1.0253  1.0253  0.8411  0.8411  0.7576  0.3179  0.4624

 Free energy of the ion-electron system (eV)
  ---------------------------------------------------
  alpha Z        PSCENC =        53.22498650
  Ewald energy   TEWEN  =     -2082.17725705
  -Hartree energ DENC   =      -592.30269663
  -exchange      EXHF   =         0.00000000
  -V(xc)+E(xc)   XCENC  =        86.20596707
  PAW double counting   =      7072.84222884    -6999.65781972
  entropy T*S    EENTRO =        -0.00000000
  eigenvalues    EBANDS =      -206.54344613
  atomic energy  EATOM  =      2598.42919538
  Solvation  Ediel_sol  =         0.00000000
  ---------------------------------------------------
  free energy    TOTEN  =       -69.97884173 eV

  energy without entropy =      -69.97884173  energy(sigma->0) =      -69.97884173


--------------------------------------------------------------------------------------------------------




--------------------------------------- Iteration      1(  24)  ---------------------------------------


    POTLOK:  cpu time    0.0045: real time    0.0045
    SETDIJ:  cpu time    0.0403: real time    0.0403
    EDDIAG:  cpu time    0.1355: real time    0.1358
  RMM-DIIS:  cpu time    0.0512: real time    0.0512
    ORTHCH:  cpu time    0.0119: real time    0.0119
       DOS:  cpu time    0.0004: real time    0.0004
    CHARGE:  cpu time    0.0067: real time    0.0067
    MIXING:  cpu time    0.0007: real time    0.0007
    --------------------------------------------
      LOOP:  cpu time    0.2513: real time    0.2516

 eigenvalue-minimisations  :  1730
 total energy-change (2. order) : 0.7567978E-06  (-0.3476555E-06)
 number of electron      63.9999973 magnetization 
 augmentation part       -7.4964133 magnetization 

 Broyden mixing:
  rms(total) = 0.15373E-02    rms(broyden)= 0.15373E-02
  rms(prec ) = 0.16425E-02
  weight for this iteration     100.00

 eigenvalues of (default mixing * dielectric matrix)
  average eigenvalue GAMMA=   1.4428
  3.2846  2.6838  2.6838  2.7979  2.2523  1.2619  1.2619  1.4547  1.4547  1.2223
  1.2223  0.9609  0.9609  0.8680  0.8680  0.6994  0.6994  0.3179  0.4582

 Free energy of the ion-electron system (eV)
  ---------------------------------------------------
  alpha Z        PSCENC =        53.22498650
  Ewald energy   TEWEN  =     -2082.17725705
  -Hartree energ DENC   =      -592.30964567
  -exchange      EXHF   =         0.00000000
  -V(xc)+E(xc)   XCENC  =        86.20619935
  PAW double counting   =      7073.11195444    -6999.92724922
  entropy T*S    EENTRO =        -0.00000000
  eigenvalues    EBANDS =      -206.53702471
  atomic energy  EATOM  =      2598.42919538
  Solvation  Ediel_sol  =         0.00000000
  ---------------------------------------------------
  free energy    TOTEN  =       -69.97884098 eV

  energy without entropy =      -69.97884098  energy(sigma->0) =      -69.97884098


--------------------------------------------------------------------------------------------------------




--------------------------------------- Iteration      1(  25)  ---------------------------------------


    POTLOK:  cpu time    0.0041: real time    0.0041
    SETDIJ:  cpu time    0.0401: real time    0.0401
    EDDIAG:  cpu time    0.1343: real time    0.1351
  RMM-DIIS:  cpu time    0.0510: real time    0.0510
    ORTHCH:  cpu time    0.0120: real time    0.0120
       DOS:  cpu time    0.0004: real time    0.0004
    CHARGE:  cpu time    0.0066: real time    0.0066
    MIXING:  cpu time    0.0007: real time    0.0007
    --------------------------------------------
      LOOP:  cpu time    0.2491: real time    0.2499

 eigenvalue-minimisations  :  1728
 total energy-change (2. order) : 0.6283317E-06  (-0.7492258E-07)
 number of electron      63.9999973 magnetization 
 augmentation part       -7.4964465 magnetization 

 Broyden mixing:
  rms(total) = 0.81889E-03    rms(broyden)= 0.81889E-03
  rms(prec ) = 0.91928E-03
  weight for this iteration     100.00

 eigenvalues of (default mixing * dielectric matrix)
  average eigenvalue GAMMA=   1.4251
  3.3133  2.7317  2.7317  2.6807  1.9630  1.2826  1.2826  1.5384  1.5384  1.2431
  1.2431  1.0977  0.9589  0.8679  0.8679  0.7934  0.7934  0.7949  0.3179  0.4603

 Free energy of the ion-electron system (eV)
  ---------------------------------------------------
  alpha Z        PSCENC =        53.22498650
  Ewald energy   TEWEN  =     -2082.17725705
  -Hartree energ DENC   =      -592.30492567
  -exchange      EXHF   =         0.00000000
  -V(xc)+E(xc)   XCENC  =        86.20614990
  PAW double counting   =      7075.00203254    -7001.81717305
  entropy T*S    EENTRO =        -0.00000000
  eigenvalues    EBANDS =      -206.54184890
  atomic energy  EATOM  =      2598.42919538
  Solvation  Ediel_sol  =         0.00000000
  ---------------------------------------------------
  free energy    TOTEN  =       -69.97884035 eV

  energy without entropy =      -69.97884035  energy(sigma->0) =      -69.97884035


--------------------------------------------------------------------------------------------------------




--------------------------------------- Iteration      1(  26)  ---------------------------------------


    POTLOK:  cpu time    0.0044: real time    0.0044
    SETDIJ:  cpu time    0.0399: real time    0.0399
    EDDIAG:  cpu time    0.1355: real time    0.1360
  RMM-DIIS:  cpu time    0.0506: real time    0.0506
    ORTHCH:  cpu time    0.0123: real time    0.0123
       DOS:  cpu time    0.0005: real time    0.0005
    CHARGE:  cpu time    0.0067: real time    0.0067
    MIXING:  cpu time    0.0007: real time    0.0007
    --------------------------------------------
      LOOP:  cpu time    0.2507: real time    0.2512

 eigenvalue-minimisations  :  1728
 total energy-change (2. order) : 0.2770812E-06  (-0.6182130E-07)
 number of electron      63.9999973 magnetization 
 augmentation part       -7.4964977 magnetization 

 Broyden mixing:
  rms(total) = 0.57636E-03    rms(broyden)= 0.57636E-03
  rms(prec ) = 0.67545E-03
  weight for this iteration     100.00

 eigenvalues of (default mixing * dielectric matrix)
  average eigenvalue GAMMA=   1.4160
  3.3040  2.9029  2.9029  2.7233  2.1956  1.4091  1.4091  1.2736  1.2736  1.4550
  1.4550  0.9967  0.9967  0.9031  0.9031  0.8050  0.8050  0.7961  0.3179  0.4657
  0.4420

 Free energy of the ion-electron system (eV)
  ---------------------------------------------------
  alpha Z        PSCENC =        53.22498650
  Ewald energy   TEWEN  =     -2082.17725705
  -Hartree energ DENC   =      -592.29895179
  -exchange      EXHF   =         0.00000000
  -V(xc)+E(xc)   XCENC  =        86.20586449
  PAW double counting   =      7075.73425589    -7002.54924698
  entropy T*S    EENTRO =        -0.00000000
  eigenvalues    EBANDS =      -206.54768651
  atomic energy  EATOM  =      2598.42919538
  Solvation  Ediel_sol  =         0.00000000
  ---------------------------------------------------
  free energy    TOTEN  =       -69.97884007 eV

  energy without entropy =      -69.97884007  energy(sigma->0) =      -69.97884007


--------------------------------------------------------------------------------------------------------




--------------------------------------- Iteration      1(  27)  ---------------------------------------


    POTLOK:  cpu time    0.0045: real time    0.0045
    SETDIJ:  cpu time    0.0400: real time    0.0400
    EDDIAG:  cpu time    0.1350: real time    0.1355
  RMM-DIIS:  cpu time    0.0506: real time    0.0506
    ORTHCH:  cpu time    0.0121: real time    0.0121
       DOS:  cpu time    0.0004: real time    0.0004
    CHARGE:  cpu time    0.0065: real time    0.0065
    MIXING:  cpu time    0.0007: real time    0.0007
    --------------------------------------------
      LOOP:  cpu time    0.2499: real time    0.2504

 eigenvalue-minimisations  :  1728
 total energy-change (2. order) : 0.6589835E-07  (-0.1846338E-07)
 number of electron      63.9999973 magnetization 
 augmentation part       -7.4965241 magnetization 

 Broyden mixing:
  rms(total) = 0.61651E-03    rms(broyden)= 0.61651E-03
  rms(prec ) = 0.70680E-03
  weight for this iteration     100.00

 eigenvalues of (default mixing * dielectric matrix)
  average eigenvalue GAMMA=   1.5066
  3.3002  3.3002  3.0825  2.7459  2.0351  2.0351  2.4510  1.2298  1.2298  1.5588
  1.1829  1.1829  0.9488  0.9488  1.0842  0.8675  0.8675  0.7617  0.7617  0.7933
  0.3179  0.4599

 Free energy of the ion-electron system (eV)
  ---------------------------------------------------
  alpha Z        PSCENC =        53.22498650
  Ewald energy   TEWEN  =     -2082.17725705
  -Hartree energ DENC   =      -592.29550297
  -exchange      EXHF   =         0.00000000
  -V(xc)+E(xc)   XCENC  =        86.20566028
  PAW double counting   =      7076.06670308    -7002.88162483
  entropy T*S    EENTRO =        -0.00000000
  eigenvalues    EBANDS =      -206.55100040
[...]
      8     -10.0544      2.00000
      9      -5.9773      2.00000
     10      -5.9773      2.00000
     11      -2.8984      2.00000
     12      -2.8984      2.00000
     13      -2.6999      2.00000
     14      -2.6999      2.00000
     15      -2.5635      2.00000
     16      -2.5635      2.00000
     17      -0.7070      2.00000
     18      -0.7070      2.00000
     19      -0.6001      2.00000
     20      -0.6001      2.00000
     21      -0.1876      2.00000
     22      -0.1876      2.00000
     23       0.4806      2.00000
     24       0.4806      2.00000
     25       0.5910      2.00000
     26       0.5910      2.00000
     27       1.0732      2.00000
     28       1.0732      2.00000
     29       1.2660      2.00000
     30       1.2660      2.00000
     31       1.3612      2.00000
     32       1.3612      2.00000
     33       4.4654      0.00000
     34       4.4654      0.00000
     35       5.5905      0.00000
     36       5.5905      0.00000
     37       6.1319      0.00000
     38       6.1319      0.00000
     39       6.4608      0.00000
     40       6.4608      0.00000
     41       7.9379      0.00000
     42       7.9379      0.00000
     43       7.9928      0.00000
     44       7.9928      0.00000
     45       8.2773      0.00000
     46       8.2773      0.00000
     47       8.5993      0.00000
     48       8.5993      0.00000

 k-point    14 :       0.3333    0.0000    0.5000
  band No.  band energies     occupation 
      1     -12.9975      2.00000
      2     -12.9975      2.00000
      3     -10.2198      2.00000
      4     -10.2198      2.00000
      5     -10.0672      2.00000
      6     -10.0672      2.00000
      7     -10.0269      2.00000
      8     -10.0269      2.00000
      9      -5.9500      2.00000
     10      -5.9500      2.00000
     11      -2.9116      2.00000
     12      -2.9116      2.00000
     13      -2.7383      2.00000
     14      -2.7383      2.00000
     15      -2.5147      2.00000
     16      -2.5147      2.00000
     17      -0.6904      2.00000
     18      -0.6904      2.00000
     19      -0.4728      2.00000
     20      -0.4728      2.00000
     21      -0.2298      2.00000
     22      -0.2298      2.00000
     23       0.3583      2.00000
     24       0.3583      2.00000
     25       0.5077      2.00000
     26       0.5077      2.00000
     27       0.9567      2.00000
     28       0.9567      2.00000
     29       1.2422      2.00000
     30       1.2422      2.00000
     31       1.3621      2.00000
     32       1.3621      2.00000
     33       4.7223      0.00000
     34       4.7223      0.00000
     35       5.9225      0.00000
     36       5.9225      0.00000
     37       6.1276      0.00000
     38       6.1276      0.00000
     39       6.5211      0.00000
     40       6.5211      0.00000
     41       7.5822      0.00000
     42       7.5822      0.00000
     43       8.0626      0.00000
     44       8.0626      0.00000
     45       8.3745      0.00000
     46       8.3745      0.00000
     47       8.9466      0.00000
     48       8.9466      0.00000

 k-point    15 :       0.0000    0.2500    0.5000
  band No.  band energies     occupation 
      1     -12.9925      2.00000
      2     -12.9925      2.00000
      3     -10.1923      2.00000
      4     -10.1923      2.00000
      5     -10.0754      2.00000
      6     -10.0754      2.00000
      7     -10.0669      2.00000
      8     -10.0669      2.00000
      9      -5.9405      2.00000
     10      -5.9405      2.00000
     11      -2.8411      2.00000
     12      -2.8411      2.00000
     13      -2.7364      2.00000
     14      -2.7364      2.00000
     15      -2.5525      2.00000
     16      -2.5525      2.00000
     17      -0.6472      2.00000
     18      -0.6472      2.00000
     19      -0.5393      2.00000
     20      -0.5393      2.00000
     21      -0.2108      2.00000
     22      -0.2108      2.00000
     23       0.4437      2.00000
     24       0.4437      2.00000
     25       0.5008      2.00000
     26       0.5008      2.00000
     27       1.0827      2.00000
     28       1.0827      2.00000
     29       1.1778      2.00000
     30       1.1778      2.00000
     31       1.3490      2.00000
     32       1.3490      2.00000
     33       4.4566      0.00000
     34       4.4566      0.00000
     35       5.6968      0.00000
     36       5.6968      0.00000
     37       6.0552      0.00000
     38       6.0552      0.00000
     39       6.3108      0.00000
     40       6.3108      0.00000
     41       7.6928      0.00000
     42       7.6928      0.00000
     43       7.9948      0.00000
     44       7.9948      0.00000
     45       8.4027      0.00000
     46       8.4027      0.00000
     47       8.9954      0.00000
     48       8.9954      0.00000

 k-point    16 :       0.3333    0.2500    0.5000
  band No.  band energies     occupation 
      1     -12.9908      2.00000
      2     -12.9908      2.00000
      3     -10.2028      2.00000
      4     -10.2028      2.00000
      5     -10.0934      2.00000
      6     -10.0934      2.00000
      7     -10.0479      2.00000
      8     -10.0479      2.00000
      9      -5.9046      2.00000
     10      -5.9046      2.00000
     11      -2.8779      2.00000
     12      -2.8779      2.00000
     13      -2.7322      2.00000
     14      -2.7322      2.00000
     15      -2.5082      2.00000
     16      -2.5082      2.00000
     17      -0.7168      2.00000
     18      -0.7168      2.00000
     19      -0.5131      2.00000
     20      -0.5131      2.00000
     21      -0.1534      2.00000
     22      -0.1534      2.00000
     23       0.3087      2.00000
     24       0.3087      2.00000
     25       0.4768      2.00000
     26       0.4768      2.00000
     27       0.9867      2.00000
     28       0.9867      2.00000
     29       1.2303      2.00000
     30       1.2303      2.00000
     31       1.3100      2.00000
     32       1.3100      2.00000
     33       4.6926      0.00000
     34       4.6926      0.00000
     35       5.8308      0.00000
     36       5.8308      0.00000
     37       6.1885      0.00000
     38       6.1885      0.00000
     39       6.4052      0.00000
     40       6.4052      0.00000
     41       7.6176      0.00000
     42       7.6176      0.00000
     43       8.0865      0.00000
     44       8.0865      0.00000
     45       8.5399      0.00000
     46       8.5399      0.00000
     47       8.8615      0.00000
     48       8.8615      0.00000

 k-point    17 :       0.0000    0.5000    0.5000
  band No.  band energies     occupation 
      1     -12.9856      2.00000
      2     -12.9856      2.00000
      3     -10.2113      2.00000
      4     -10.2113      2.00000
      5     -10.0758      2.00000
      6     -10.0758      2.00000
      7     -10.0749      2.00000
      8     -10.0749      2.00000
      9      -5.9052      2.00000
     10      -5.9052      2.00000
     11      -2.7846      2.00000
     12      -2.7846      2.00000
     13      -2.7712      2.00000
     14      -2.7712      2.00000
     15      -2.5231      2.00000
     16      -2.5231      2.00000
     17      -0.5844      2.00000
     18      -0.5844      2.00000
     19      -0.5453      2.00000
     20      -0.5453      2.00000
     21      -0.1871      2.00000
     22      -0.1871      2.00000
     23       0.2865      2.00000
     24       0.2865      2.00000
     25       0.4915      2.00000
     26       0.4915      2.00000
     27       1.1229      2.00000
     28       1.1229      2.00000
     29       1.1389      2.00000
     30       1.1389      2.00000
     31       1.3207      2.00000
     32       1.3207      2.00000
     33       4.4170      0.00000
     34       4.4170      0.00000
     35       5.7486      0.00000
     36       5.7486      0.00000
     37       6.0098      0.00000
     38       6.0098      0.00000
     39       6.1234      0.00000
     40       6.1234      0.00000
     41       7.6411      0.00000
     42       7.6411      0.00000
     43       8.1315      0.00000
     44       8.1315      0.00000
     45       8.6726      0.00000
     46       8.6726      0.00000
     47       9.1000      0.00000
     48       9.1112      0.00000

 k-point    18 :       0.3333    0.5000    0.5000
  band No.  band energies     occupation 
      1     -12.9841      2.00000
      2     -12.9841      2.00000
      3     -10.1860      2.00000
      4     -10.1860      2.00000
      5     -10.1002      2.00000
      6     -10.1002      2.00000
      7     -10.0877      2.00000
      8     -10.0877      2.00000
      9      -5.8600      2.00000
     10      -5.8600      2.00000
     11      -2.8620      2.00000
     12      -2.8620      2.00000
     13      -2.7023      2.00000
     14      -2.7023      2.00000
     15      -2.4996      2.00000
     16      -2.4996      2.00000
     17      -0.7316      2.00000
     18      -0.7316      2.00000
     19      -0.5685      2.00000
     20      -0.5685      2.00000
     21      -0.0865      2.00000
     22      -0.0865      2.00000
     23       0.2657      2.00000
     24       0.2657      2.00000
     25       0.4480      2.00000
     26       0.4480      2.00000
     27       1.0006      2.00000
     28       1.0006      2.00000
     29       1.1905      2.00000
     30       1.1905      2.00000
     31       1.2939      2.00000
     32       1.2939      2.00000
     33       4.6977      0.00000
     34       4.6977      0.00000
     35       5.7798      0.00000
     36       5.7798      0.00000
     37       6.1704      0.00000
     38       6.1704      0.00000
     39       6.4047      0.00000
     40       6.4047      0.00000
     41       7.4441      0.00000
     42       7.4441      0.00000
     43       8.2086      0.00000
     44       8.2086      0.00000
     45       8.5346      0.00000
     46       8.5346      0.00000
     47       8.8703      0.00000
     48       8.8703      0.00000


--------------------------------------------------------------------------------------------------------


 soft charge-density along one line, spin component           1
         0         1         2         3         4         5         6         7         8         9
 total charge-density along one line
 
 pseudopotential strength for first ion, spin component:           1
  1.171   5.271  -0.000   0.000  -0.000
  5.271  22.650  -0.001   0.000  -0.001
 -0.000  -0.001  -0.373  -0.001  -0.001
  0.000   0.000  -0.001  -0.373  -0.000
 -0.000  -0.001  -0.001  -0.000  -0.373
 total augmentation occupancy for first ion, spin component:           1
  0.895  -0.019   0.009  -0.005   0.010
 -0.019   0.000  -0.000   0.000  -0.000
  0.009  -0.000   0.074  -0.004  -0.003
 -0.005   0.000  -0.004   0.073  -0.002
  0.010  -0.000  -0.003  -0.002   0.076


------------------------ aborting loop because EDIFF is reached ----------------------------------------


    CHARGE:  cpu time    0.0066: real time    0.0066
    FORLOC:  cpu time    0.0002: real time    0.0003
    FORNL :  cpu time    0.0250: real time    0.0251
    STRESS:  cpu time    0.0767: real time    0.0767
    FORCOR:  cpu time    0.0042: real time    0.0042
    FORHAR:  cpu time    0.0010: real time    0.0010
    MIXING:  cpu time    0.0003: real time    0.0003
    OFIELD:  cpu time    0.0000: real time    0.0000

  FORCE on cell =-STRESS in cart. coord.  units (eV):
  Direction    XX          YY          ZZ          XY          YZ          ZX
  --------------------------------------------------------------------------------------
  Alpha Z    51.37345    51.37345    51.37345
  Ewald    -687.85630  -717.99727  -657.61651    -0.00000    -0.00000     0.00000
  Hartree   200.43003   177.03252   220.33806    -0.00000    -0.00000    -0.00000
  E(xc)    -217.46626  -217.45501  -217.34892     0.00000    -0.00000     0.00000
  Local    -662.34953  -607.82969  -711.54527    -0.00000    -0.00000    -0.00000
  n-local   701.52237   700.77834   700.58396    -0.13403    -0.02793    -0.04107
  augment  -157.42963  -157.29845  -157.28613     0.00000     0.00000    -0.00000
  Kinetic   771.82028   771.38712   771.53110    -0.00533    -0.14580     0.04193
  Fock        0.00000     0.00000     0.00000     0.00000     0.00000     0.00000
  -------------------------------------------------------------------------------------
  Total       0.04442    -0.00897     0.02973     0.00000     0.00000     0.00000
  in kB       0.22219    -0.04488     0.14872     0.00000     0.00000     0.00000
  external pressure =        0.11 kB  Pullay stress =        0.00 kB


 VOLUME and BASIS-vectors are now :
 -----------------------------------------------------------------------------
  energy-cutoff  :      400.00
  volume of cell :      320.27
      direct lattice vectors                 reciprocal lattice vectors
     7.772781589  0.000000000  0.000000000     0.128654072  0.000000000  0.000000000
     0.000000000  6.618110803  0.000000000     0.000000000  0.151100522  0.000000000
     0.000000000  0.000000000  6.225936168     0.000000000  0.000000000  0.160618415

  length of vectors
     7.772781589  6.618110803  6.225936168     0.128654072  0.151100522  0.160618415


 FORCES acting on ions
    electron-ion (+dipol)            ewald-force                    non-local-force                 convergence-correction
 -----------------------------------------------------------------------------------------------
   0.134E+01 0.225E+01 -.782E+00   -.122E+01 -.214E+01 0.731E+00   -.114E+00 -.111E+00 0.511E-01   -.302E-05 0.461E-05 0.219E-05
   -.134E+01 0.225E+01 -.782E+00   0.122E+01 -.214E+01 0.731E+00   0.114E+00 -.111E+00 0.511E-01   0.302E-05 0.461E-05 0.219E-05
   -.134E+01 -.225E+01 -.782E+00   0.122E+01 0.214E+01 0.731E+00   0.114E+00 0.111E+00 0.511E-01   0.302E-05 -.461E-05 0.219E-05
   0.134E+01 -.225E+01 -.782E+00   -.122E+01 0.214E+01 0.731E+00   -.114E+00 0.111E+00 0.511E-01   -.302E-05 -.461E-05 0.219E-05
   -.391E-14 0.584E+01 0.395E+00   0.150E-15 -.537E+01 -.300E+00   0.000E+00 -.475E+00 -.988E-01   0.232E-15 0.357E-05 0.132E-05
   0.132E-14 -.584E+01 0.395E+00   0.872E-14 0.537E+01 -.300E+00   0.000E+00 0.475E+00 -.988E-01   -.857E-15 -.357E-05 0.132E-05
   -.756E-14 -.343E+01 0.389E+00   0.186E-13 0.347E+01 -.395E+00   0.000E+00 -.481E-01 0.941E-02   0.147E-13 -.901E-04 -.245E-04
   0.197E-13 0.343E+01 0.389E+00   0.144E-13 -.347E+01 -.395E+00   0.000E+00 0.481E-01 0.941E-02   -.449E-14 0.901E-04 -.245E-04
   -.783E+02 -.475E+02 0.277E+02   0.809E+02 0.494E+02 -.289E+02   -.262E+01 -.190E+01 0.114E+01   -.478E-04 -.219E-04 -.121E-03
   0.783E+02 -.475E+02 0.277E+02   -.809E+02 0.494E+02 -.289E+02   0.262E+01 -.190E+01 0.114E+01   0.478E-04 -.219E-04 -.121E-03
   0.783E+02 0.475E+02 0.277E+02   -.809E+02 -.494E+02 -.289E+02   0.262E+01 0.190E+01 0.114E+01   0.478E-04 0.219E-04 -.121E-03
   -.783E+02 0.475E+02 0.277E+02   0.809E+02 -.494E+02 -.289E+02   -.262E+01 0.190E+01 0.114E+01   -.478E-04 0.219E-04 -.121E-03
   0.105E-12 0.905E+02 0.289E+02   0.199E-14 -.938E+02 -.302E+02   0.000E+00 0.334E+01 0.129E+01   -.147E-13 -.594E-04 0.324E-04
   0.685E-14 -.905E+02 0.289E+02   -.240E-13 0.938E+02 -.302E+02   0.000E+00 -.334E+01 0.129E+01   0.104E-13 0.594E-04 0.324E-04
   0.875E-13 -.100E+02 -.835E+02   0.215E-14 0.103E+02 0.872E+02   0.000E+00 -.307E+00 -.366E+01   -.108E-14 -.639E-04 -.403E-05
   0.177E-13 0.100E+02 -.835E+02   -.121E-13 -.103E+02 0.872E+02   0.000E+00 0.307E+00 -.366E+01   -.223E-14 0.639E-04 -.403E-05
 -----------------------------------------------------------------------------------------------
   -.153E-11 -.129E-11 0.139E+00   0.108E-13 0.124E-13 0.568E-13   0.000E+00 0.000E+00 -.142E+00   -.353E-14 0.808E-13 -.464E-03
 
 
 POSITION                                       TOTAL-FORCE (eV/Angst)
 -----------------------------------------------------------------------------------
      5.78036      4.51905      3.11265         0.001200      0.001152     -0.000018
      1.99242      4.51905      3.11265        -0.001200      0.001152     -0.000018
      5.87881      2.09906     -0.00032        -0.001200     -0.001152     -0.000018
      1.89397      2.09906     -0.00032         0.001200     -0.001152     -0.000018
      3.88639      5.66871      6.17698         0.000000     -0.003877     -0.003690
      0.00000      0.94940      3.06402         0.000000      0.003877     -0.003690
      3.88639      1.19833      3.11676         0.000000     -0.003404      0.003548
      0.00000      5.41978      0.00379         0.000000      0.003404      0.003548
      5.58020      2.15787      2.43553        -0.000194      0.000668      0.000732
      2.19258      2.15787      2.43553         0.000194      0.000668      0.000732
      6.07897      4.46024      5.54849         0.000194     -0.000668      0.000732
      1.69381      4.46024      5.54849        -0.000194     -0.000668      0.000732
      3.88639      5.87111      2.43778         0.000000      0.006296     -0.004837
      0.00000      0.74700      5.55075         0.000000     -0.006296     -0.004837
      3.88639      1.26543      5.17887         0.000000     -0.002280      0.003552
      0.00000      5.35268      2.06591         0.000000      0.002280      0.003552
 -----------------------------------------------------------------------------------
    total drift:                               -0.000000     -0.000000     -0.003375


--------------------------------------------------------------------------------------------------------



  FREE ENERGIE OF THE ION-ELECTRON SYSTEM (eV)
  ---------------------------------------------------
  free  energy   TOTEN  =       -70.33189199 eV

  energy  without entropy=      -70.33189199  energy(sigma->0) =      -70.33189199
 
 d Force = 0.4120758E-04[ 0.177E-04, 0.647E-04]  d Energy = 0.4227690E-04-0.107E-05
 d Force =-0.1826549E-01[-0.182E-01,-0.183E-01]  d Ewald  = 0.6488758E-02-0.248E-01


--------------------------------------------------------------------------------------------------------


    POTLOK:  cpu time    0.0787: real time    0.0790


--------------------------------------------------------------------------------------------------------


 Conjugate gradient step on ions:
 trial-energy change:   -0.000042  1 .order   -0.000042   -0.000066   -0.000019
  (g-gl).g = 0.366E-04      g.g   = 0.579E-04  gl.gl    = 0.862E-04
 g(Force)  = 0.546E-04   g(Stress)= 0.332E-05 ortho     = 0.664E-05
 gamma     =   0.42409
 trial     =   1.08346
 opt step  =   1.50097  (harmonic =   1.50948) maximal distance =0.00124635
 next E    =   -70.331896   (d E  =  -0.00005)


--------------------------------------------------------------------------------------------------------


  
 reached required accuracy - stopping structural energy minimisation
     LOOP+:  cpu time    2.3741: real time    2.5062
    4ORBIT:  cpu time    0.0000: real time    0.0000

 total amount of memory used by VASP MPI-rank0    31591. kBytes
=======================================================================

   base      :      30000. kBytes
   nonlr-proj:        341. kBytes
   fftplans  :        244. kBytes
   grid      :        368. kBytes
   one-center:          3. kBytes
   wavefun   :        635. kBytes
 
  
  
 General timing and accounting informations for this job:
 ========================================================
  
                  Total CPU time used (sec):      107.281
                            User time (sec):      100.603
                          System time (sec):        6.679
                         Elapsed time (sec):      111.865
  
                   Maximum memory used (kb):      103688.
                   Average memory used (kb):          N/A
  
                          Minor page faults:       684304
                          Major page faults:            0
                 Voluntary context switches:        12774
