 running on  128 total cores
 distrk:  each k-point on  128 cores,    1 groups
 distr:  one band on   16 cores,    8 groups
 vasp.6.2.1 16May21 (build Dec 23 2021 00:35:04) complex                        
  
 POSCAR found type information on POSCAR LiP S 
 POSCAR found :  3 types and      16 ions
 scaLAPACK will be used
 LDA part: xc-table for Pade appr. of Perdew
 -----------------------------------------------------------------------------
|                                                                             |
|           W    W    AA    RRRRR   N    N  II  N    N   GGGG   !!!           |
|           W    W   A  A   R    R  NN   N  II  NN   N  G    G  !!!           |
|           W    W  A    A  R    R  N N  N  II  N N  N  G       !!!           |
|           W WW W  AAAAAA  RRRRR   N  N N  II  N  N N  G  GGG   !            |
|           WW  WW  A    A  R   R   N   NN  II  N   NN  G    G                |
|           W    W  A    A  R    R  N    N  II  N    N   GGGG   !!!           |
|                                                                             |
|     The requested file  could not be found or opened for reading            |
|     k-point information. Automatic k-point generation is used as a          |
|     fallback, which may lead to unwanted results.                           |
|                                                                             |
 -----------------------------------------------------------------------------

 POSCAR, INCAR and KPOINTS ok, starting setup
 FFT: planning ...
 WAVECAR not read
 entering main loop
       N       E                     dE             d eps       ncg     rms          rms(c)
DAV:   1     0.269507475853E+03    0.26951E+03   -0.21820E+04  1728   0.901E+02
DAV:   2    -0.454300172094E+02   -0.31494E+03   -0.30055E+03  2240   0.176E+02
DAV:   3    -0.717515105947E+02   -0.26321E+02   -0.26145E+02  2232   0.557E+01
DAV:   4    -0.722267968503E+02   -0.47529E+00   -0.47444E+00  2168   0.895E+00
DAV:   5    -0.722394064029E+02   -0.12610E-01   -0.12606E-01  2152   0.143E+00    0.221E+01
RMM:   6    -0.700691844506E+02    0.21702E+01   -0.38306E+00  1728   0.511E+00    0.147E+01
RMM:   7    -0.700249858918E+02    0.44199E-01   -0.26783E+00  1728   0.475E+00    0.491E+00
RMM:   8    -0.699762313674E+02    0.48755E-01   -0.28295E-01  1728   0.194E+00    0.637E-01
RMM:   9    -0.699768072630E+02   -0.57590E-03   -0.26628E-02  1764   0.724E-01    0.589E-01
RMM:  10    -0.699770426401E+02   -0.23538E-03   -0.50391E-03  1846   0.290E-01    0.792E-01
RMM:  11    -0.699787981494E+02   -0.17555E-02   -0.48936E-03  1728   0.257E-01    0.175E-01
RMM:  12    -0.699789480347E+02   -0.14989E-03   -0.12602E-03  1729   0.124E-01    0.114E-01
RMM:  13    -0.699789720856E+02   -0.24051E-04   -0.16538E-04  1793   0.567E-02    0.126E-01
RMM:  14    -0.699789892593E+02   -0.17174E-04   -0.66637E-05  1824   0.279E-02    0.146E-01
RMM:  15    -0.699789560157E+02    0.33244E-04   -0.93939E-05  1728   0.358E-02    0.219E-01
RMM:  16    -0.699788765303E+02    0.79485E-04   -0.13508E-04  1728   0.315E-02    0.168E-01
RMM:  17    -0.699788785233E+02   -0.19930E-05   -0.12376E-05  1728   0.132E-02    0.170E-01
RMM:  18    -0.699788758540E+02    0.26693E-05   -0.55299E-06  1764   0.729E-03    0.165E-01
RMM:  19    -0.699788765297E+02   -0.67569E-06   -0.78440E-07  1734   0.350E-03    0.162E-01
RMM:  20    -0.699788509898E+02    0.25540E-04   -0.53975E-05  2273   0.209E-02    0.622E-02
RMM:  21    -0.699788477009E+02    0.32889E-05   -0.38250E-06  1760   0.651E-03    0.525E-02
RMM:  22    -0.699788440942E+02    0.36067E-05   -0.82319E-06  1945   0.750E-03    0.351E-02
RMM:  23    -0.699788417327E+02    0.23615E-05   -0.66350E-06  1879   0.762E-03    0.171E-02
RMM:  24    -0.699788409759E+02    0.75680E-06   -0.34766E-06  1730   0.545E-03    0.154E-02
RMM:  25    -0.699788403476E+02    0.62833E-06   -0.74923E-07  1728   0.322E-03    0.819E-03
RMM:  26    -0.699788400705E+02    0.27708E-06   -0.61821E-07  1728   0.234E-03    0.576E-03
RMM:  27    -0.699788400046E+02    0.65898E-07   -0.18463E-07  1728   0.140E-03    0.617E-03
RMM:  28    -0.699788398250E+02    0.17961E-06   -0.25002E-07  1729   0.150E-03    0.503E-03
RMM:  29    -0.699788397876E+02    0.37415E-07   -0.10515E-07  1706   0.100E-03    0.541E-03
RMM:  30    -0.699788397450E+02    0.42589E-07   -0.12364E-07  1635   0.968E-04    0.401E-03
RMM:  31    -0.699788397609E+02   -0.15981E-07   -0.72786E-08  1557   0.776E-04    0.242E-03
RMM:  32    -0.699788397661E+02   -0.51768E-08   -0.17555E-08  1179   0.470E-04
   1 F= -.69978840E+02 E0= -.69978840E+02  d E =-.699788E+02
 curvature:   0.00 expect dE= 0.000E+00 dE for cont linesearch  0.000E+00
 trial: gam= 0.00000 g(F)=  0.368E+00 g(S)=  0.338E+00 ort = 0.000E+00 (trialstep = 0.100E+01)
 search vector abs. value=  0.705E+00
 bond charge predicted
       N       E                     dE             d eps       ncg     rms          rms(c)
DAV:   1    -0.704539275200E+02   -0.47509E+00   -0.27725E+01  1752   0.184E+01    0.687E+00
RMM:   2    -0.702242392136E+02    0.22969E+00   -0.21169E+00  1728   0.564E+00    0.290E+00
RMM:   3    -0.701446771606E+02    0.79562E-01   -0.53471E-01  1728   0.273E+00    0.193E+00
RMM:   4    -0.701352133718E+02    0.94638E-02   -0.12939E-01  1763   0.132E+00    0.103E+00
RMM:   5    -0.701357084756E+02   -0.49510E-03   -0.20618E-02  1728   0.572E-01    0.209E-01
RMM:   6    -0.701360875799E+02   -0.37910E-03   -0.70545E-03  1761   0.298E-01    0.179E-01
RMM:   7    -0.701361589423E+02   -0.71362E-04   -0.13653E-03  1807   0.144E-01    0.153E-01
RMM:   8    -0.701361461893E+02    0.12753E-04   -0.55376E-04  1728   0.845E-02    0.613E-02
RMM:   9    -0.701361371408E+02    0.90485E-05   -0.12747E-04  1728   0.440E-02    0.499E-02
RMM:  10    -0.701361259861E+02    0.11155E-04   -0.85095E-05  1728   0.296E-02    0.814E-03
RMM:  11    -0.701361304804E+02   -0.44944E-05   -0.24345E-05  1808   0.169E-02    0.115E-02
RMM:  12    -0.701361289475E+02    0.15329E-05   -0.51167E-06  1728   0.841E-03    0.241E-03
RMM:  13    -0.701361293105E+02   -0.36298E-06   -0.10598E-06  1728   0.427E-03    0.312E-03
RMM:  14    -0.701361295083E+02   -0.19779E-06   -0.36315E-07  1893   0.217E-03    0.175E-03
RMM:  15    -0.701361296749E+02   -0.16665E-06   -0.13823E-07  1678   0.121E-03    0.288E-04
RMM:  16    -0.701361297189E+02   -0.43930E-07   -0.33573E-08  1385   0.653E-04    0.656E-04
RMM:  17    -0.701361296741E+02    0.44806E-07   -0.64394E-09  1152   0.308E-04    0.256E-04
RMM:  18    -0.701361296622E+02    0.11883E-07   -0.19731E-09  1140   0.169E-04    0.165E-04
RMM:  19    -0.701361296582E+02    0.39518E-08   -0.54675E-10   904   0.103E-04
   2 F= -.70136130E+02 E0= -.70136130E+02  d E =-.157290E+00
 trial-energy change:   -0.157290  1 .order   -0.202540   -0.705225    0.300146
 step:   0.6392(harm=  0.7015)  dis= 0.03835  next Energy=   -70.192405 (dE=-0.214E+00)
 bond charge predicted
       N       E                     dE             d eps       ncg     rms          rms(c)
DAV:   1    -0.702369832957E+02   -0.10085E+00   -0.36612E+00  1888   0.654E+00    0.283E+00
RMM:   2    -0.702024198604E+02    0.34563E-01   -0.26763E-01  1728   0.200E+00    0.977E-01
RMM:   3    -0.701916931478E+02    0.10727E-01   -0.76590E-02  1728   0.995E-01    0.373E-01
RMM:   4    -0.701914993371E+02    0.19381E-03   -0.13643E-02  1742   0.444E-01    0.251E-01
RMM:   5    -0.701915506890E+02   -0.51352E-04   -0.23745E-03  1728   0.201E-01    0.494E-02
RMM:   6    -0.701916011084E+02   -0.50419E-04   -0.90073E-04  1764   0.108E-01    0.598E-02
RMM:   7    -0.701916104891E+02   -0.93808E-05   -0.14250E-04  1758   0.487E-02    0.299E-02
RMM:   8    -0.701916156378E+02   -0.51487E-05   -0.39472E-05  1751   0.257E-02    0.995E-03
RMM:   9    -0.701916164335E+02   -0.79576E-06   -0.11347E-05  2026   0.128E-02    0.627E-03
RMM:  10    -0.701916153322E+02    0.11013E-05   -0.14925E-06  1773   0.434E-03    0.201E-03
RMM:  11    -0.701916156943E+02   -0.36208E-06   -0.31047E-07  1748   0.209E-03    0.145E-03
RMM:  12    -0.701916156321E+02    0.62179E-07   -0.10285E-07  1623   0.120E-03    0.682E-04
RMM:  13    -0.701916156622E+02   -0.30088E-07   -0.30775E-08  1331   0.628E-04    0.265E-04
RMM:  14    -0.701916156388E+02    0.23412E-07   -0.10979E-08  1171   0.364E-04    0.329E-04
RMM:  15    -0.701916156650E+02   -0.26204E-07   -0.33281E-09  1152   0.204E-04    0.727E-05
RMM:  16    -0.701916156661E+02   -0.11005E-08   -0.48261E-10   817   0.104E-04
   3 F= -.70191616E+02 E0= -.70191616E+02  d E =-.212776E+00
 curvature:  -0.34 expect dE=-0.271E-01 dE for cont linesearch -0.240E-06
 trial: gam= 0.11337 g(F)=  0.745E-01 g(S)=  0.616E-02 ort = 0.710E-03 (trialstep = 0.928E+00)
 search vector abs. value=  0.899E-01
 bond charge predicted
       N       E                     dE             d eps       ncg     rms          rms(c)
DAV:   1    -0.702554447473E+02   -0.63829E-01   -0.14265E+00  1792   0.411E+00    0.124E+00
RMM:   2    -0.702517955811E+02    0.36492E-02   -0.98257E-02  1728   0.125E+00    0.382E-01
RMM:   3    -0.702494881533E+02    0.23074E-02   -0.19692E-02  1728   0.573E-01    0.212E-01
RMM:   4    -0.702490057425E+02    0.48241E-03   -0.49201E-03  1735   0.275E-01    0.124E-01
RMM:   5    -0.702489871735E+02    0.18569E-04   -0.87995E-04  1761   0.126E-01    0.411E-02
RMM:   6    -0.702490061536E+02   -0.18980E-04   -0.24838E-04  1790   0.626E-02    0.183E-02
RMM:   7    -0.702490114703E+02   -0.53167E-05   -0.62629E-05  1917   0.294E-02    0.854E-03
RMM:   8    -0.702490115678E+02   -0.97501E-07   -0.94627E-06  1805   0.112E-02    0.382E-03
RMM:   9    -0.702490125166E+02   -0.94881E-06   -0.21530E-06  1846   0.510E-03    0.158E-03
RMM:  10    -0.702490125909E+02   -0.74274E-07   -0.51674E-07  1761   0.231E-03    0.873E-04
RMM:  11    -0.702490125990E+02   -0.80800E-08   -0.99148E-08  1587   0.112E-03
   4 F= -.70249013E+02 E0= -.70249013E+02  d E =-.573969E-01
 trial-energy change:   -0.057397  1 .order   -0.057443   -0.074917   -0.039968
 step:   1.9889(harm=  1.9889)  dis= 0.03000  next Energy=   -70.271913 (dE=-0.803E-01)
 bond charge predicted
       N       E                     dE             d eps       ncg     rms          rms(c)
DAV:   1    -0.702829359948E+02   -0.33923E-01   -0.18513E+00  1776   0.467E+00    0.144E+00
RMM:   2    -0.702781424600E+02    0.47935E-02   -0.12761E-01  1728   0.143E+00    0.433E-01
RMM:   3    -0.702751625869E+02    0.29799E-02   -0.25658E-02  1728   0.652E-01    0.239E-01
RMM:   4    -0.702745354952E+02    0.62709E-03   -0.64650E-03  1736   0.314E-01    0.139E-01
RMM:   5    -0.702745141434E+02    0.21352E-04   -0.11396E-03  1762   0.143E-01    0.493E-02
RMM:   6    -0.702745385099E+02   -0.24366E-04   -0.32199E-04  1782   0.712E-02    0.199E-02
RMM:   7    -0.702745459872E+02   -0.74773E-05   -0.83404E-05  1932   0.337E-02    0.967E-03
RMM:   8    -0.702745460776E+02   -0.90427E-07   -0.11620E-05  1804   0.124E-02    0.411E-03
RMM:   9    -0.702745471492E+02   -0.10715E-05   -0.27216E-06  1831   0.570E-03    0.177E-03
RMM:  10    -0.702745472949E+02   -0.14574E-06   -0.65042E-07  1757   0.266E-03    0.123E-03
RMM:  11    -0.702745472627E+02    0.32156E-07   -0.14366E-07  1597   0.132E-03    0.475E-04
RMM:  12    -0.702745472997E+02   -0.36914E-07   -0.45546E-08  1417   0.787E-04    0.380E-04
RMM:  13    -0.702745473178E+02   -0.18186E-07   -0.16381E-08  1236   0.441E-04    0.170E-04
RMM:  14    -0.702745473192E+02   -0.13033E-08   -0.37881E-09  1134   0.225E-04
   5 F= -.70274547E+02 E0= -.70274547E+02  d E =-.829317E-01
 curvature:  -1.11 expect dE=-0.447E-01 dE for cont linesearch -0.252E-03
 trial: gam= 0.45089 g(F)=  0.298E-01 g(S)=  0.106E-01 ort = 0.453E-02 (trialstep = 0.114E+01)
 search vector abs. value=  0.628E-01
 bond charge predicted
       N       E                     dE             d eps       ncg     rms          rms(c)
DAV:   1    -0.702973820817E+02   -0.22835E-01   -0.19240E+00  1776   0.473E+00    0.169E+00
RMM:   2    -0.703001999718E+02   -0.28179E-02   -0.13339E-01  1728   0.150E+00    0.505E-01
RMM:   3    -0.702989779291E+02    0.12220E-02   -0.23675E-02  1728   0.669E-01    0.319E-01
RMM:   4    -0.702987274428E+02    0.25049E-03   -0.54825E-03  1763   0.305E-01    0.173E-01
RMM:   5    -0.702987766547E+02   -0.49212E-04   -0.73677E-04  1730   0.120E-01    0.319E-02
RMM:   6    -0.702987979898E+02   -0.21335E-04   -0.22179E-04  1806   0.614E-02    0.194E-02
RMM:   7    -0.702988012797E+02   -0.32899E-05   -0.48945E-05  1769   0.284E-02    0.542E-03
RMM:   8    -0.702988022917E+02   -0.10121E-05   -0.14397E-05  1873   0.147E-02    0.599E-03
RMM:   9    -0.702988024239E+02   -0.13220E-06   -0.25645E-06  1922   0.589E-03    0.491E-03
RMM:  10    -0.702988024423E+02   -0.18415E-07   -0.38621E-07  1734   0.201E-03    0.302E-03
RMM:  11    -0.702988020656E+02    0.37678E-06   -0.10307E-07  1704   0.118E-03    0.801E-04
RMM:  12    -0.702988020775E+02   -0.11961E-07   -0.60115E-08  1548   0.808E-04    0.795E-04
RMM:  13    -0.702988020812E+02   -0.37066E-08   -0.10864E-08  1198   0.410E-04
   6 F= -.70298802E+02 E0= -.70298802E+02  d E =-.242548E-01
 trial-energy change:   -0.024255  1 .order   -0.023889   -0.048396    0.000617
 step:   1.1263(harm=  1.1257)  dis= 0.01421  next Energy=   -70.298806 (dE=-0.243E-01)
 bond charge predicted
       N       E                     dE             d eps       ncg     rms          rms(c)
DAV:   1    -0.702988056493E+02   -0.35718E-05   -0.27911E-04  2096   0.571E-02    0.203E-02
RMM:   2    -0.702988061050E+02   -0.45570E-06   -0.19577E-05  1728   0.181E-02    0.621E-03
RMM:   3    -0.702988058452E+02    0.25983E-06   -0.34061E-06  1728   0.807E-03    0.448E-03
RMM:   4    -0.702988054786E+02    0.36659E-06   -0.82236E-07  1763   0.373E-03    0.220E-03
RMM:   5    -0.702988052684E+02    0.21024E-06   -0.11055E-07  1732   0.147E-03    0.394E-04
RMM:   6    -0.702988052431E+02    0.25304E-07   -0.33633E-08  1400   0.746E-04    0.251E-04
RMM:   7    -0.702988052339E+02    0.91613E-08   -0.64665E-09  1147   0.330E-04
   7 F= -.70298805E+02 E0= -.70298805E+02  d E =-.242579E-01
 curvature:  -0.83 expect dE=-0.118E-01 dE for cont linesearch -0.842E-08
 trial: gam= 0.44616 g(F)=  0.110E-01 g(S)=  0.326E-02 ort = 0.252E-04 (trialstep = 0.114E+01)
 search vector abs. value=  0.267E-01
 bond charge predicted
       N       E                     dE             d eps       ncg     rms          rms(c)
DAV:   1    -0.703104781506E+02   -0.11673E-01   -0.43738E-01  1744   0.214E+00    0.489E-01
RMM:   2    -0.703120777435E+02   -0.15996E-02   -0.25751E-02  1728   0.663E-01    0.112E-01
RMM:   3    -0.703122120733E+02   -0.13433E-03   -0.41599E-03  1728   0.294E-01    0.150E-01
RMM:   4    -0.703121383026E+02    0.73771E-04   -0.74058E-04  1752   0.129E-01    0.861E-02
RMM:   5    -0.703121228542E+02    0.15448E-04   -0.23186E-04  1728   0.620E-02    0.178E-02
RMM:   6    -0.703121240034E+02   -0.11492E-05   -0.58332E-05  1801   0.301E-02    0.119E-02
RMM:   7    -0.703121256189E+02   -0.16155E-05   -0.20629E-05  1750   0.161E-02    0.148E-02
RMM:   8    -0.703121251199E+02    0.49901E-06   -0.69585E-06  1728   0.904E-03    0.459E-03
RMM:   9    -0.703121248890E+02    0.23096E-06   -0.11291E-06  1728   0.448E-03    0.265E-03
RMM:  10    -0.703121248204E+02    0.68600E-07   -0.52519E-07  1738   0.254E-03    0.109E-03
RMM:  11    -0.703121249262E+02   -0.10586E-06   -0.32184E-07  1733   0.182E-03    0.195E-03
RMM:  12    -0.703121248563E+02    0.69964E-07   -0.10270E-07  1717   0.108E-03    0.280E-04
RMM:  13    -0.703121248609E+02   -0.46684E-08   -0.19250E-08  1216   0.498E-04
   8 F= -.70312125E+02 E0= -.70312125E+02  d E =-.133196E-01
 trial-energy change:   -0.013320  1 .order   -0.013279   -0.016195   -0.010362
 step:   2.9582(harm=  3.1578)  dis= 0.03223  next Energy=   -70.320588 (dE=-0.218E-01)
 bond charge predicted
       N       E                     dE             d eps       ncg     rms          rms(c)
DAV:   1    -0.703169013396E+02   -0.47765E-02   -0.11217E+00  1728   0.343E+00    0.797E-01
RMM:   2    -0.703210248867E+02   -0.41235E-02   -0.66169E-02  1728   0.106E+00    0.179E-01
RMM:   3    -0.703213714535E+02   -0.34657E-03   -0.10675E-02  1728   0.471E-01    0.244E-01
RMM:   4    -0.703211803221E+02    0.19113E-03   -0.19031E-03  1755   0.207E-01    0.140E-01
RMM:   5    -0.703211421313E+02    0.38191E-04   -0.59759E-04  1728   0.993E-02    0.298E-02
RMM:   6    -0.703211452055E+02   -0.30743E-05   -0.14952E-04  1801   0.481E-02    0.185E-02
RMM:   7    -0.703211496184E+02   -0.44129E-05   -0.53218E-05  1749   0.259E-02    0.241E-02
RMM:   8    -0.703211483982E+02    0.12203E-05   -0.17527E-05  1728   0.145E-02    0.728E-03
RMM:   9    -0.703211479339E+02    0.46432E-06   -0.28814E-06  1728   0.716E-03    0.395E-03
RMM:  10    -0.703211477734E+02    0.16042E-06   -0.13135E-06  1742   0.405E-03    0.167E-03
RMM:  11    -0.703211479804E+02   -0.20698E-06   -0.75828E-07  1750   0.283E-03    0.318E-03
RMM:  12    -0.703211478502E+02    0.13024E-06   -0.25488E-07  1728   0.169E-03    0.450E-04
RMM:  13    -0.703211478622E+02   -0.11994E-07   -0.50377E-08  1508   0.801E-04    0.301E-04
RMM:  14    -0.703211478715E+02   -0.92891E-08   -0.75732E-09  1152   0.360E-04
   9 F= -.70321148E+02 E0= -.70321148E+02  d E =-.223426E-01
 curvature:  -2.94 expect dE=-0.141E-01 dE for cont linesearch -0.713E-04
 trial: gam= 0.18133 g(F)=  0.206E-02 g(S)=  0.273E-02 ort = 0.806E-03 (trialstep = 0.150E+01)
 search vector abs. value=  0.596E-02
 bond charge predicted
       N       E                     dE             d eps       ncg     rms          rms(c)
DAV:   1    -0.703285974117E+02   -0.74495E-02   -0.42380E-01  1808   0.225E+00    0.978E-01
RMM:   2    -0.703265594320E+02    0.20380E-02   -0.24278E-02  1728   0.629E-01    0.246E-01
RMM:   3    -0.703251460701E+02    0.14134E-02   -0.39738E-03  1728   0.266E-01    0.119E-01
RMM:   4    -0.703247922678E+02    0.35380E-03   -0.16228E-03  1728   0.150E-01    0.776E-02
RMM:   5    -0.703248026756E+02   -0.10408E-04   -0.17734E-04  1762   0.600E-02    0.431E-02
RMM:   6    -0.703248096031E+02   -0.69275E-05   -0.50013E-05  1764   0.285E-02    0.170E-02
RMM:   7    -0.703248081264E+02    0.14768E-05   -0.20816E-05  1730   0.160E-02    0.105E-02
RMM:   8    -0.703248088537E+02   -0.72735E-06   -0.39067E-06  1763   0.830E-03    0.377E-03
RMM:   9    -0.703248091321E+02   -0.27837E-06   -0.14283E-06  1843   0.445E-03    0.205E-03
RMM:  10    -0.703248090982E+02    0.33898E-07   -0.19476E-07  1739   0.176E-03    0.996E-04
RMM:  11    -0.703248089345E+02    0.16366E-06   -0.10888E-07  1678   0.110E-03    0.784E-04
RMM:  12    -0.703248089334E+02    0.11705E-08   -0.23714E-08  1276   0.571E-04
  10 F= -.70324809E+02 E0= -.70324809E+02  d E =-.366106E-02
 trial-energy change:   -0.003661  1 .order   -0.003656   -0.007410    0.000099
 step:   1.4818(harm=  1.4818)  dis= 0.00631  next Energy=   -70.324804 (dE=-0.366E-02)
 bond charge predicted
       N       E                     dE             d eps       ncg     rms          rms(c)
DAV:   1    -0.703248102482E+02   -0.13136E-05   -0.73121E-05  2152   0.295E-02    0.128E-02
RMM:   2    -0.703248099724E+02    0.27576E-06   -0.41613E-06  1728   0.824E-03    0.330E-03
RMM:   3    -0.703248097172E+02    0.25522E-06   -0.69617E-07  1728   0.350E-03    0.155E-03
RMM:   4    -0.703248095456E+02    0.17161E-06   -0.28431E-07  1728   0.199E-03    0.101E-03
RMM:   5    -0.703248094444E+02    0.10114E-06   -0.30624E-08  1306   0.788E-04    0.524E-04
RMM:   6    -0.703248094116E+02    0.32813E-07   -0.82108E-09  1151   0.370E-04    0.183E-04
RMM:   7    -0.703248094415E+02   -0.29886E-07   -0.35332E-09  1141   0.219E-04    0.154E-04
RMM:   8    -0.703248094318E+02    0.97216E-08   -0.64750E-10   976   0.117E-04
  11 F= -.70324809E+02 E0= -.70324809E+02  d E =-.366156E-02
 curvature:  -0.89 expect dE=-0.460E-02 dE for cont linesearch -0.298E-08
 trial: gam= 1.10996 g(F)=  0.502E-02 g(S)=  0.124E-03 ort = 0.445E-05 (trialstep = 0.715E+00)
 search vector abs. value=  0.125E-01
 bond charge predicted
       N       E                     dE             d eps       ncg     rms          rms(c)
DAV:   1    -0.703282669654E+02   -0.34575E-02   -0.19497E-01  1728   0.142E+00    0.349E-01
RMM:   2    -0.703281084874E+02    0.15848E-03   -0.10104E-02  1728   0.421E-01    0.102E-01
RMM:   3    -0.703278571720E+02    0.25132E-03   -0.17958E-03  1728   0.187E-01    0.768E-02
RMM:   4    -0.703277771643E+02    0.80008E-04   -0.42552E-04  1747   0.876E-02    0.531E-02
RMM:   5    -0.703277748516E+02    0.23127E-05   -0.91078E-05  1747   0.394E-02    0.140E-02
RMM:   6    -0.703277770189E+02   -0.21673E-05   -0.25569E-05  1784   0.199E-02    0.562E-03
RMM:   7    -0.703277771889E+02   -0.16998E-06   -0.70956E-06  1853   0.985E-03    0.262E-03
RMM:   8    -0.703277773837E+02   -0.19489E-06   -0.11996E-06  1746   0.457E-03    0.137E-03
RMM:   9    -0.703277772827E+02    0.10100E-06   -0.32472E-07  1838   0.234E-03    0.409E-04
RMM:  10    -0.703277772555E+02    0.27279E-07   -0.83467E-08  1572   0.991E-04    0.259E-04
RMM:  11    -0.703277772595E+02   -0.40845E-08   -0.14226E-08  1208   0.459E-04
  12 F= -.70327777E+02 E0= -.70327777E+02  d E =-.296783E-02
 trial-energy change:   -0.002968  1 .order   -0.002973   -0.003676   -0.002270
 step:   1.8687(harm=  1.8687)  dis= 0.01389  next Energy=   -70.329616 (dE=-0.481E-02)
 bond charge predicted
       N       E                     dE             d eps       ncg     rms          rms(c)
DAV:   1    -0.703311004054E+02   -0.33231E-02   -0.50970E-01  1744   0.230E+00    0.567E-01
RMM:   2    -0.703306744795E+02    0.42593E-03   -0.26424E-02  1728   0.681E-01    0.165E-01
RMM:   3    -0.703300155379E+02    0.65894E-03   -0.46933E-03  1728   0.302E-01    0.125E-01
RMM:   4    -0.703298035060E+02    0.21203E-03   -0.11045E-03  1741   0.142E-01    0.832E-02
RMM:   5    -0.703297943431E+02    0.91629E-05   -0.24833E-04  1753   0.649E-02    0.264E-02
RMM:   6    -0.703298002685E+02   -0.59253E-05   -0.63515E-05  1797   0.318E-02    0.100E-02
RMM:   7    -0.703298008532E+02   -0.58477E-06   -0.18422E-05  1851   0.157E-02    0.365E-03
RMM:   8    -0.703298011036E+02   -0.25040E-06   -0.28799E-06  1778   0.708E-03    0.203E-03
RMM:   9    -0.703298010238E+02    0.79873E-07   -0.76226E-07  1849   0.343E-03    0.650E-04
RMM:  10    -0.703298009860E+02    0.37724E-07   -0.19843E-07  1709   0.147E-03    0.546E-04
RMM:  11    -0.703298009973E+02   -0.11263E-07   -0.32987E-08  1333   0.701E-04    0.148E-04
RMM:  12    -0.703298010071E+02   -0.97839E-08   -0.10363E-08  1178   0.370E-04
  13 F= -.70329801E+02 E0= -.70329801E+02  d E =-.499158E-02
 curvature:  -2.27 expect dE=-0.203E-02 dE for cont linesearch -0.741E-05
 ZBRENT: extrapolating
 opt :   1.9471  next Energy=   -70.329809 (dE=-0.500E-02)
 bond charge predicted
       N       E                     dE             d eps       ncg     rms          rms(c)
DAV:   1    -0.703298121261E+02   -0.11129E-04   -0.23558E-03  2016   0.156E-01    0.380E-02
RMM:   2    -0.703298097139E+02    0.24122E-05   -0.12194E-04  1728   0.463E-02    0.112E-02
RMM:   3    -0.703298066040E+02    0.31099E-05   -0.21736E-05  1728   0.205E-02    0.834E-03
RMM:   4    -0.703298059229E+02    0.68117E-06   -0.51847E-06  1740   0.968E-03    0.547E-03
RMM:   5    -0.703298062337E+02   -0.31083E-06   -0.11230E-06  1754   0.440E-03    0.195E-03
RMM:   6    -0.703298063107E+02   -0.77014E-07   -0.28534E-07  1764   0.214E-03    0.685E-04
RMM:   7    -0.703298062768E+02    0.33870E-07   -0.83573E-08  1734   0.108E-03    0.242E-04
RMM:   8    -0.703298062865E+02   -0.96279E-08   -0.13403E-08  1153   0.505E-04
  14 F= -.70329806E+02 E0= -.70329806E+02  d E =-.499685E-02
 curvature:  -2.42 expect dE=-0.227E-02 dE for cont linesearch -0.504E-06
 trial: gam= 0.12765 g(F)=  0.493E-03 g(S)=  0.445E-03 ort =-0.510E-04 (trialstep = 0.961E+00)
 search vector abs. value=  0.113E-02
 bond charge predicted
       N       E                     dE             d eps       ncg     rms          rms(c)
DAV:   1    -0.703308570064E+02   -0.10507E-02   -0.26780E-02  1776   0.559E-01    0.187E-01
RMM:   2    -0.703305229616E+02    0.33404E-03   -0.16393E-03  1728   0.156E-01    0.745E-02
RMM:   3    -0.703304444511E+02    0.78511E-04   -0.65263E-04  1728   0.866E-02    0.317E-02
RMM:   4    -0.703304401934E+02    0.42577E-05   -0.83166E-05  1728   0.366E-02    0.209E-02
RMM:   5    -0.703304337529E+02    0.64405E-05   -0.22845E-05  1734   0.184E-02    0.465E-03
RMM:   6    -0.703304350237E+02   -0.12708E-05   -0.78536E-06  1760   0.983E-03    0.502E-03
RMM:   7    -0.703304348463E+02    0.17742E-06   -0.14906E-06  1763   0.471E-03    0.243E-03
RMM:   8    -0.703304343292E+02    0.51712E-06   -0.38204E-07  1753   0.244E-03    0.126E-03
RMM:   9    -0.703304343775E+02   -0.48294E-07   -0.10432E-07  1793   0.126E-03    0.952E-04
RMM:  10    -0.703304344303E+02   -0.52763E-07   -0.20554E-08  1215   0.526E-04    0.113E-04
RMM:  11    -0.703304344603E+02   -0.29987E-07   -0.38130E-09  1152   0.255E-04    0.729E-05
RMM:  12    -0.703304344531E+02    0.71118E-08   -0.10021E-09  1019   0.138E-04
  15 F= -.70330434E+02 E0= -.70330434E+02  d E =-.628167E-03
 trial-energy change:   -0.000628  1 .order   -0.000634   -0.000896   -0.000372
 step:   1.7349(harm=  1.6429)  dis= 0.00316  next Energy=   -70.330581 (dE=-0.775E-03)
 bond charge predicted
       N       E                     dE             d eps       ncg     rms          rms(c)
DAV:   1    -0.703308450446E+02   -0.41058E-03   -0.17360E-02  1872   0.450E-01    0.151E-01
RMM:   2    -0.703306294159E+02    0.21563E-03   -0.10631E-03  1728   0.126E-01    0.599E-02
RMM:   3    -0.703305784949E+02    0.50921E-04   -0.42301E-04  1728   0.697E-02    0.255E-02
RMM:   4    -0.703305748967E+02    0.35981E-05   -0.53901E-05  1728   0.294E-02    0.168E-02
RMM:   5    -0.703305696461E+02    0.52507E-05   -0.14830E-05  1734   0.148E-02    0.374E-03
RMM:   6    -0.703305706539E+02   -0.10078E-05   -0.51009E-06  1760   0.792E-03    0.405E-03
RMM:   7    -0.703305704921E+02    0.16177E-06   -0.96562E-07  1763   0.379E-03    0.197E-03
RMM:   8    -0.703305700751E+02    0.41702E-06   -0.24773E-07  1752   0.196E-03    0.101E-03
RMM:   9    -0.703305701134E+02   -0.38255E-07   -0.64804E-08  1606   0.102E-03    0.743E-04
RMM:  10    -0.703305701667E+02   -0.53371E-07   -0.15344E-08  1157   0.459E-04    0.916E-05
RMM:  11    -0.703305701805E+02   -0.13747E-07   -0.30624E-09  1152   0.227E-04    0.331E-05
RMM:  12    -0.703305701759E+02    0.45666E-08   -0.87181E-10  1089   0.126E-04
  16 F= -.70330570E+02 E0= -.70330570E+02  d E =-.763889E-03
 curvature:  -0.98 expect dE=-0.979E-03 dE for cont linesearch -0.669E-06
 trial: gam= 1.07762 g(F)=  0.728E-03 g(S)=  0.274E-03 ort =-0.278E-04 (trialstep = 0.559E+00)
 search vector abs. value=  0.225E-02
 bond charge predicted
       N       E                     dE             d eps       ncg     rms          rms(c)
DAV:   1    -0.703310085737E+02   -0.43839E-03   -0.18745E-02  1760   0.456E-01    0.109E-01
RMM:   2    -0.703310472436E+02   -0.38670E-04   -0.10242E-03  1728   0.135E-01    0.262E-02
RMM:   3    -0.703310431389E+02    0.41048E-05   -0.16965E-04  1728   0.587E-02    0.231E-02
RMM:   4    -0.703310401709E+02    0.29680E-05   -0.37154E-05  1756   0.266E-02    0.176E-02
RMM:   5    -0.703310386243E+02    0.15466E-05   -0.99899E-06  1736   0.126E-02    0.303E-03
RMM:   6    -0.703310389716E+02   -0.34727E-06   -0.25610E-06  1790   0.646E-03    0.177E-03
RMM:   7    -0.703310390295E+02   -0.57931E-07   -0.68261E-07  1978   0.312E-03    0.210E-03
RMM:   8    -0.703310388504E+02    0.17905E-06   -0.14105E-07  1725   0.131E-03    0.231E-03
RMM:   9    -0.703310389604E+02   -0.10995E-06   -0.88427E-08  1614   0.903E-04    0.106E-03
RMM:  10    -0.703310389943E+02   -0.33862E-07   -0.25671E-08  1309   0.561E-04    0.240E-04
RMM:  11    -0.703310390014E+02   -0.71600E-08   -0.47370E-09  1150   0.251E-04
  17 F= -.70331039E+02 E0= -.70331039E+02  d E =-.468826E-03
 trial-energy change:   -0.000469  1 .order   -0.000465   -0.000544   -0.000387
 step:   1.5554(harm=  1.9378)  dis= 0.00408  next Energy=   -70.331404 (dE=-0.834E-03)
 bond charge predicted
       N       E                     dE             d eps       ncg     rms          rms(c)
DAV:   1    -0.703313400331E+02   -0.30104E-03   -0.59524E-02  1728   0.813E-01    0.195E-01
RMM:   2    -0.703314588939E+02   -0.11886E-03   -0.32499E-03  1728   0.241E-01    0.468E-02
RMM:   3    -0.703314446520E+02    0.14242E-04   -0.53826E-04  1728   0.105E-01    0.410E-02
RMM:   4    -0.703314359506E+02    0.87014E-05   -0.11825E-04  1756   0.475E-02    0.311E-02
RMM:   5    -0.703314326856E+02    0.32651E-05   -0.31490E-05  1736   0.224E-02    0.518E-03
RMM:   6    -0.703314335475E+02   -0.86196E-06   -0.81205E-06  1791   0.115E-02    0.317E-03
RMM:   7    -0.703314337051E+02   -0.15755E-06   -0.21523E-06  1981   0.553E-03    0.372E-03
RMM:   8    -0.703314334106E+02    0.29443E-06   -0.45908E-07  1728   0.236E-03    0.415E-03
RMM:   9    -0.703314335893E+02   -0.17866E-06   -0.27904E-07  1728   0.161E-03    0.191E-03
RMM:  10    -0.703314336448E+02   -0.55468E-07   -0.81906E-08  1611   0.100E-03    0.407E-04
RMM:  11    -0.703314336598E+02   -0.15077E-07   -0.16706E-08  1202   0.461E-04    0.179E-04
RMM:  12    -0.703314336356E+02    0.24253E-07   -0.69362E-09  1152   0.277E-04    0.404E-04
RMM:  13    -0.703314336351E+02    0.47930E-09   -0.10474E-09  1045   0.135E-04
  18 F= -.70331434E+02 E0= -.70331434E+02  d E =-.863459E-03
 curvature:  -2.07 expect dE=-0.396E-03 dE for cont linesearch -0.133E-04
 ZBRENT: extrapolating
 opt :   1.7654  next Energy=   -70.331446 (dE=-0.876E-03)
 bond charge predicted
       N       E                     dE             d eps       ncg     rms          rms(c)
DAV:   1    -0.703314416513E+02   -0.80158E-05   -0.26439E-03  2016   0.171E-01    0.410E-02
RMM:   2    -0.703314477014E+02   -0.60501E-05   -0.14460E-04  1728   0.507E-02    0.986E-03
RMM:   3    -0.703314472968E+02    0.40456E-06   -0.23988E-05  1728   0.221E-02    0.876E-03
RMM:   4    -0.703314467571E+02    0.53976E-06   -0.52448E-06  1757   0.100E-02    0.671E-03
RMM:   5    -0.703314462655E+02    0.49158E-06   -0.14255E-06  1735   0.474E-03    0.123E-03
RMM:   6    -0.703314463589E+02   -0.93391E-07   -0.36428E-07  1759   0.244E-03    0.667E-04
RMM:   7    -0.703314463715E+02   -0.12556E-07   -0.94345E-08  1695   0.119E-03    0.748E-04
RMM:   8    -0.703314462967E+02    0.74727E-07   -0.22098E-08  1178   0.551E-04    0.907E-04
RMM:   9    -0.703314463456E+02   -0.48847E-07   -0.12700E-08  1152   0.356E-04    0.338E-04
RMM:  10    -0.703314463589E+02   -0.13280E-07   -0.38960E-09  1152   0.228E-04    0.782E-05
RMM:  11    -0.703314463624E+02   -0.35157E-08   -0.68374E-10  1017   0.112E-04
  19 F= -.70331446E+02 E0= -.70331446E+02  d E =-.876186E-03
 curvature:  -1.97 expect dE=-0.415E-03 dE for cont linesearch -0.209E-07
 trial: gam= 0.17306 g(F)=  0.141E-03 g(S)=  0.698E-04 ort = 0.490E-05 (trialstep = 0.800E+00)
 search vector abs. value=  0.280E-03
 bond charge predicted
       N       E                     dE             d eps       ncg     rms          rms(c)
DAV:   1    -0.703315791225E+02   -0.13276E-03   -0.47965E-03  1792   0.238E-01    0.791E-02
RMM:   2    -0.703315789502E+02    0.17230E-06   -0.33114E-04  1728   0.733E-02    0.230E-02
RMM:   3    -0.703315770340E+02    0.19162E-05   -0.68565E-05  1728   0.344E-02    0.154E-02
RMM:   4    -0.703315777868E+02   -0.75275E-06   -0.14562E-05  1763   0.157E-02    0.783E-03
RMM:   5    -0.703315788624E+02   -0.10756E-05   -0.24626E-06  1730   0.667E-03    0.175E-03
RMM:   6    -0.703315790528E+02   -0.19039E-06   -0.78361E-07  1879   0.332E-03    0.130E-03
RMM:   7    -0.703315791701E+02   -0.11734E-06   -0.10753E-07  1712   0.140E-03    0.418E-04
RMM:   8    -0.703315791633E+02    0.67998E-08   -0.31450E-08  1432   0.706E-04
  20 F= -.70331579E+02 E0= -.70331579E+02  d E =-.132801E-03
 trial-energy change:   -0.000133  1 .order   -0.000128   -0.000170   -0.000085
 step:   1.3040(harm=  1.6119)  dis= 0.00138  next Energy=   -70.331607 (dE=-0.161E-03)
 bond charge predicted
       N       E                     dE             d eps       ncg     rms          rms(c)
DAV:   1    -0.703316138250E+02   -0.34655E-04   -0.19000E-03  1920   0.150E-01    0.498E-02
RMM:   2    -0.703316135957E+02    0.22937E-06   -0.13126E-04  1728   0.461E-02    0.145E-02
RMM:   3    -0.703316128633E+02    0.73242E-06   -0.27169E-05  1728   0.216E-02    0.973E-03
RMM:   4    -0.703316134606E+02   -0.59735E-06   -0.57763E-06  1763   0.987E-03    0.493E-03
RMM:   5    -0.703316141156E+02   -0.65503E-06   -0.97637E-07  1730   0.420E-03    0.110E-03
RMM:   6    -0.703316142194E+02   -0.10373E-06   -0.31118E-07  1847   0.209E-03    0.816E-04
RMM:   7    -0.703316142927E+02   -0.73313E-07   -0.42309E-08  1540   0.895E-04    0.252E-04
RMM:   8    -0.703316142882E+02    0.44420E-08   -0.12222E-08  1153   0.460E-04
  21 F= -.70331614E+02 E0= -.70331614E+02  d E =-.167926E-03
 curvature:  -0.91 expect dE=-0.152E-03 dE for cont linesearch -0.271E-05
 trial: gam= 0.66189 g(F)=  0.133E-03 g(S)=  0.338E-04 ort = 0.289E-04 (trialstep = 0.770E+00)
 search vector abs. value=  0.328E-03
 bond charge predicted
       N       E                     dE             d eps       ncg     rms          rms(c)
DAV:   1    -0.703317278217E+02   -0.11353E-03   -0.49022E-03  1760   0.233E-01    0.647E-02
RMM:   2    -0.703317314224E+02   -0.36007E-05   -0.28801E-04  1728   0.702E-02    0.164E-02
RMM:   3    -0.703317290906E+02    0.23317E-05   -0.51839E-05  1728   0.317E-02    0.157E-02
RMM:   4    -0.703317280533E+02    0.10373E-05   -0.11332E-05  1754   0.146E-02    0.932E-03
RMM:   5    -0.703317281911E+02   -0.13781E-06   -0.23903E-06  1735   0.663E-03    0.116E-03
RMM:   6    -0.703317282552E+02   -0.64073E-07   -0.81741E-07  1840   0.345E-03    0.101E-03
RMM:   7    -0.703317282680E+02   -0.12864E-07   -0.14045E-07  1802   0.151E-03    0.652E-04
RMM:   8    -0.703317282795E+02   -0.11485E-07   -0.25934E-08  1342   0.695E-04    0.261E-04
RMM:   9    -0.703317282686E+02    0.10948E-07   -0.66507E-09  1152   0.348E-04    0.599E-05
RMM:  10    -0.703317282665E+02    0.20987E-08   -0.18681E-09  1060   0.179E-04
  22 F= -.70331728E+02 E0= -.70331728E+02  d E =-.113978E-03
 trial-energy change:   -0.000114  1 .order   -0.000113   -0.000143   -0.000082
 step:   1.5631(harm=  1.7928)  dis= 0.00210  next Energy=   -70.331772 (dE=-0.158E-03)
 bond charge predicted
       N       E                     dE             d eps       ncg     rms          rms(c)
DAV:   1    -0.703317796513E+02   -0.51383E-04   -0.51985E-03  1872   0.240E-01    0.666E-02
RMM:   2    -0.703317835209E+02   -0.38696E-05   -0.30537E-04  1728   0.723E-02    0.169E-02
RMM:   3    -0.703317810600E+02    0.24609E-05   -0.54944E-05  1728   0.326E-02    0.162E-02
RMM:   4    -0.703317799542E+02    0.11058E-05   -0.12010E-05  1754   0.150E-02    0.960E-03
RMM:   5    -0.703317800929E+02   -0.13873E-06   -0.25346E-06  1735   0.683E-03    0.119E-03
RMM:   6    -0.703317801612E+02   -0.68249E-07   -0.86636E-07  1842   0.355E-03    0.104E-03
RMM:   7    -0.703317801747E+02   -0.13552E-07   -0.14857E-07  1804   0.156E-03    0.673E-04
RMM:   8    -0.703317801866E+02   -0.11873E-07   -0.27613E-08  1373   0.716E-04    0.267E-04
RMM:   9    -0.703317801755E+02    0.11129E-07   -0.70710E-09  1152   0.360E-04    0.603E-05
RMM:  10    -0.703317801733E+02    0.21828E-08   -0.19900E-09  1063   0.184E-04
  23 F= -.70331780E+02 E0= -.70331780E+02  d E =-.165885E-03
 curvature:  -1.50 expect dE=-0.791E-04 dE for cont linesearch -0.587E-05
 ZBRENT: increasing intervall
 opt :   3.1492  next Energy=   -70.331725 (dE=-0.111E-03)
 bond charge predicted
       N       E                     dE             d eps       ncg     rms          rms(c)
DAV:   1    -0.703317110254E+02    0.69150E-04   -0.20799E-02  1760   0.480E-01    0.133E-01
RMM:   2    -0.703317289746E+02   -0.17949E-04   -0.12220E-03  1728   0.145E-01    0.339E-02
RMM:   3    -0.703317198054E+02    0.91693E-05   -0.21987E-04  1728   0.652E-02    0.324E-02
RMM:   4    -0.703317149684E+02    0.48369E-05   -0.48001E-05  1754   0.300E-02    0.192E-02
RMM:   5    -0.703317149654E+02    0.30827E-08   -0.10153E-05  1735   0.137E-02    0.237E-03
RMM:   6    -0.703317152533E+02   -0.28792E-06   -0.34726E-06  1848   0.710E-03    0.209E-03
RMM:   7    -0.703317153035E+02   -0.50204E-07   -0.59569E-07  1838   0.311E-03    0.137E-03
RMM:   8    -0.703317153304E+02   -0.26892E-07   -0.10802E-07  1689   0.143E-03    0.520E-04
RMM:   9    -0.703317153090E+02    0.21425E-07   -0.27976E-08  1342   0.736E-04    0.104E-04
RMM:  10    -0.703317153054E+02    0.35243E-08   -0.89191E-09  1152   0.378E-04
  24 F= -.70331715E+02 E0= -.70331715E+02  d E =-.101017E-03
 curvature:  13.97 expect dE= 0.462E-02 dE for cont linesearch  0.583E-03
 ZBRENT: bracketing found
 ZBRENT: interpolating
 opt :   1.9351  next Energy=   -70.331787 (dE=-0.173E-03)
 bond charge predicted
       N       E                     dE             d eps       ncg     rms          rms(c)
DAV:   1    -0.703317802939E+02   -0.64985E-04   -0.12185E-02  1744   0.367E-01    0.102E-01
RMM:   2    -0.703317939526E+02   -0.13659E-04   -0.71537E-04  1728   0.111E-01    0.259E-02
RMM:   3    -0.703317894190E+02    0.45336E-05   -0.12881E-04  1728   0.499E-02    0.246E-02
RMM:   4    -0.703317860266E+02    0.33924E-05   -0.28231E-05  1754   0.230E-02    0.146E-02
RMM:   5    -0.703317852930E+02    0.73362E-06   -0.58996E-06  1735   0.104E-02    0.186E-03
RMM:   6    -0.703317854806E+02   -0.18762E-06   -0.20189E-06  1848   0.542E-03    0.159E-03
RMM:   7    -0.703317855038E+02   -0.23189E-07   -0.34403E-07  1827   0.237E-03    0.998E-04
RMM:   8    -0.703317854930E+02    0.10780E-07   -0.63548E-08  1548   0.109E-03    0.392E-04
RMM:   9    -0.703317855126E+02   -0.19629E-07   -0.16151E-08  1208   0.558E-04    0.775E-05
RMM:  10    -0.703317855155E+02   -0.28367E-08   -0.49056E-09  1152   0.281E-04
  25 F= -.70331786E+02 E0= -.70331786E+02  d E =-.171227E-03
 curvature:  -0.16 expect dE=-0.138E-04 dE for cont linesearch -0.935E-10
 trial: gam= 0.71936 g(F)=  0.670E-04 g(S)=  0.192E-04 ort =-0.438E-06 (trialstep = 0.100E+01)
 search vector abs. value=  0.255E-03
 bond charge predicted
       N       E                     dE             d eps       ncg     rms          rms(c)
DAV:   1    -0.703318617045E+02   -0.76192E-04   -0.46888E-03  1760   0.227E-01    0.567E-02
RMM:   2    -0.703318435398E+02    0.18165E-04   -0.27403E-04  1728   0.674E-02    0.202E-02
RMM:   3    -0.703318398625E+02    0.36773E-05   -0.74076E-05  1728   0.329E-02    0.129E-02
RMM:   4    -0.703318413475E+02   -0.14850E-05   -0.12600E-05  1744   0.144E-02    0.820E-03
RMM:   5    -0.703318431643E+02   -0.18168E-05   -0.33945E-06  1750   0.712E-03    0.188E-03
RMM:   6    -0.703318430042E+02    0.16014E-06   -0.11105E-06  1769   0.360E-03    0.205E-03
RMM:   7    -0.703318432083E+02   -0.20411E-06   -0.22508E-07  1793   0.179E-03    0.713E-04
RMM:   8    -0.703318432971E+02   -0.88795E-07   -0.47418E-08  1573   0.871E-04    0.469E-04
RMM:   9    -0.703318432803E+02    0.16734E-07   -0.10709E-08  1152   0.444E-04    0.238E-04
RMM:  10    -0.703318432574E+02    0.22960E-07   -0.33213E-09  1152   0.228E-04    0.107E-04
RMM:  11    -0.703318432466E+02    0.10790E-07   -0.97917E-10  1007   0.129E-04    0.654E-05
RMM:  12    -0.703318432469E+02   -0.35152E-09   -0.13126E-10   668   0.775E-05
  26 F= -.70331843E+02 E0= -.70331843E+02  d E =-.577315E-04
 trial-energy change:   -0.000058  1 .order   -0.000057   -0.000086   -0.000027
 step:   1.4048(harm=  1.4657)  dis= 0.00193  next Energy=   -70.331849 (dE=-0.632E-04)
 bond charge predicted
       N       E                     dE             d eps       ncg     rms          rms(c)
DAV:   1    -0.703318523313E+02   -0.90847E-05   -0.75200E-04  1952   0.909E-02    0.227E-02
RMM:   2    -0.703318490035E+02    0.33277E-05   -0.43930E-05  1728   0.270E-02    0.810E-03
RMM:   3    -0.703318484032E+02    0.60031E-06   -0.11872E-05  1728   0.132E-02    0.516E-03
RMM:   4    -0.703318489874E+02   -0.58418E-06   -0.20232E-06  1744   0.577E-03    0.329E-03
RMM:   5    -0.703318496977E+02   -0.71032E-06   -0.54534E-07  1750   0.285E-03    0.754E-04
RMM:   6    -0.703318496203E+02    0.77368E-07   -0.17842E-07  1754   0.144E-03    0.811E-04
RMM:   7    -0.703318496997E+02   -0.79342E-07   -0.34703E-08  1382   0.719E-04    0.299E-04
RMM:   8    -0.703318497353E+02   -0.35587E-07   -0.76960E-09  1152   0.346E-04    0.168E-04
RMM:   9    -0.703318497216E+02    0.13703E-07   -0.18069E-09  1152   0.180E-04    0.545E-05
RMM:  10    -0.703318497173E+02    0.42537E-08   -0.38141E-10   891   0.988E-05
  27 F= -.70331850E+02 E0= -.70331850E+02  d E =-.642019E-04
 curvature:  -2.14 expect dE=-0.124E-03 dE for cont linesearch -0.370E-06
 trial: gam= 0.42409 g(F)=  0.546E-04 g(S)=  0.332E-05 ort = 0.664E-05 (trialstep = 0.108E+01)
 search vector abs. value=  0.109E-03
 bond charge predicted
       N       E                     dE             d eps       ncg     rms          rms(c)
DAV:   1    -0.703318862496E+02   -0.36528E-04   -0.16681E-03  1744   0.153E-01    0.532E-02
RMM:   2    -0.703318905998E+02   -0.43502E-05   -0.99983E-05  1728   0.398E-02    0.134E-02
RMM:   3    -0.703318915156E+02   -0.91583E-06   -0.18252E-05  1728   0.181E-02    0.763E-03
RMM:   4    -0.703318917678E+02   -0.25221E-06   -0.39823E-06  1775   0.867E-03    0.508E-03
RMM:   5    -0.703318919278E+02   -0.15996E-06   -0.77253E-07  1740   0.405E-03    0.992E-04
RMM:   6    -0.703318919889E+02   -0.61123E-07   -0.29650E-07  1917   0.213E-03    0.784E-04
RMM:   7    -0.703318919942E+02   -0.53333E-08   -0.39767E-08  1413   0.723E-04
  28 F= -.70331892E+02 E0= -.70331892E+02  d E =-.422769E-04
 trial-energy change:   -0.000042  1 .order   -0.000042   -0.000066   -0.000019
 step:   1.5010(harm=  1.5095)  dis= 0.00125  next Energy=   -70.331896 (dE=-0.459E-04)
 reached required accuracy - stopping structural energy minimisation
