<?xml version="1.0" encoding="ISO-8859-1"?>
<modeling>
 <generator>
  <i name="program" type="string">vasp </i>
  <i name="version" type="string">6.2.1  </i>
  <i name="subversion" type="string">16May21 (build Dec 23 2021 00:35:04) complex                          parallel </i>
  <i name="platform" type="string">LinuxIFC </i>
  <i name="date" type="string">2023 02 21 </i>
  <i name="time" type="string">00:20:15 </i>
 </generator>
 <incar>
  <i type="string" name="PREC">Normal</i>
  <i type="string" name="ALGO">Fast</i>
  <i type="int" name="ISPIN">     0</i>
  <i type="int" name="NELM">   150</i>
  <i type="int" name="IBRION">     2</i>
  <i name="EDIFF">      0.00000001</i>
  <i name="EDIFFG">     -0.01000000</i>
  <i type="int" name="NSW">   800</i>
  <i type="int" name="ISIF">     3</i>
  <i name="ENCUT">    400.00000000</i>
  <i type="string" name="LREAL">AUTO</i>
  <i type="int" name="ISMEAR">     0</i>
  <i name="SIGMA">      0.05000000</i>
  <i name="KSPACING">      0.32000000</i>
  <i type="logical" name="KGAMMA"> T  </i>
  <i type="int" name="NWRITE">     1</i>
  <i type="int" name="LMAXMIX">     6</i>
  <i type="logical" name="LWAVE"> F  </i>
  <i type="logical" name="LCHARG"> F  </i>
  <i type="logical" name="LASPH"> T  </i>
  <i type="string" name="GGA">PE</i>
 </incar>
 <primitive_cell>
  <structure name="primitive_cell" >
   <crystal>
    <varray name="basis" >
     <v>       7.70829000       0.00000000       0.00000000 </v>
     <v>       0.00000000       6.53521000       0.00000000 </v>
     <v>       0.00000000       0.00000000       6.13650000 </v>
    </varray>
    <i name="volume">    309.12799096 </i>
    <varray name="rec_basis" >
     <v>       0.12973046       0.00000000       0.00000000 </v>
     <v>       0.00000000       0.15301727       0.00000000 </v>
     <v>       0.00000000       0.00000000       0.16295934 </v>
    </varray>
   </crystal>
   <varray name="positions" >
    <v>       0.75020000       0.66910000       0.51790000 </v>
    <v>       0.24980000       0.66910000       0.51790000 </v>
    <v>       0.74980000       0.33090000       0.01790000 </v>
    <v>       0.25020000       0.33090000       0.01790000 </v>
    <v>       0.50000000       0.85500000       0.98600000 </v>
    <v>       0.00000000       0.14500000       0.48600000 </v>
    <v>       0.50000000       0.17820000       0.49420000 </v>
    <v>       0.00000000       0.82180000       0.99420000 </v>
    <v>       0.71850000       0.32830000       0.38570000 </v>
    <v>       0.28150000       0.32830000       0.38570000 </v>
    <v>       0.78150000       0.67170000       0.88570000 </v>
    <v>       0.21850000       0.67170000       0.88570000 </v>
    <v>       0.50000000       0.89170000       0.38800000 </v>
    <v>       0.00000000       0.10830000       0.88800000 </v>
    <v>       0.50000000       0.19510000       0.82300000 </v>
    <v>       0.00000000       0.80490000       0.32300000 </v>
   </varray>
  </structure>
  <varray name="primitive_index" >
   <v type="int" >        1 </v>
   <v type="int" >        2 </v>
   <v type="int" >        3 </v>
   <v type="int" >        4 </v>
   <v type="int" >        5 </v>
   <v type="int" >        6 </v>
   <v type="int" >        7 </v>
   <v type="int" >        8 </v>
   <v type="int" >        9 </v>
   <v type="int" >       10 </v>
   <v type="int" >       11 </v>
   <v type="int" >       12 </v>
   <v type="int" >       13 </v>
   <v type="int" >       14 </v>
   <v type="int" >       15 </v>
   <v type="int" >       16 </v>
  </varray>
 </primitive_cell>
 <kpoints>
  <generation param="Gamma">
   <v type="int" name="divisions">       3        4        4 </v>
   <v name="usershift">      0.00000000       0.00000000       0.00000000 </v>
   <v name="genvec1">      0.33333333       0.00000000       0.00000000 </v>
   <v name="genvec2">      0.00000000       0.25000000       0.00000000 </v>
   <v name="genvec3">      0.00000000       0.00000000       0.25000000 </v>
   <v name="shift">      0.00000000       0.00000000       0.00000000 </v>
  </generation>
  <varray name="kpointlist" >
   <v>       0.00000000       0.00000000       0.00000000 </v>
   <v>       0.33333333       0.00000000       0.00000000 </v>
   <v>       0.00000000       0.25000000       0.00000000 </v>
   <v>       0.33333333       0.25000000       0.00000000 </v>
   <v>       0.00000000       0.50000000       0.00000000 </v>
   <v>       0.33333333       0.50000000       0.00000000 </v>
   <v>       0.00000000       0.00000000       0.25000000 </v>
   <v>       0.33333333       0.00000000       0.25000000 </v>
   <v>       0.00000000       0.25000000       0.25000000 </v>
   <v>       0.33333333       0.25000000       0.25000000 </v>
   <v>       0.00000000       0.50000000       0.25000000 </v>
   <v>       0.33333333       0.50000000       0.25000000 </v>
   <v>       0.00000000       0.00000000       0.50000000 </v>
   <v>       0.33333333       0.00000000       0.50000000 </v>
   <v>       0.00000000       0.25000000       0.50000000 </v>
   <v>       0.33333333       0.25000000       0.50000000 </v>
   <v>       0.00000000       0.50000000       0.50000000 </v>
   <v>       0.33333333       0.50000000       0.50000000 </v>
  </varray>
  <varray name="weights" >
   <v>       0.02083333 </v>
   <v>       0.04166667 </v>
   <v>       0.04166667 </v>
   <v>       0.08333333 </v>
   <v>       0.02083333 </v>
   <v>       0.04166667 </v>
   <v>       0.04166667 </v>
   <v>       0.08333333 </v>
   <v>       0.08333333 </v>
   <v>       0.16666667 </v>
   <v>       0.04166667 </v>
   <v>       0.08333333 </v>
   <v>       0.02083333 </v>
   <v>       0.04166667 </v>
   <v>       0.04166667 </v>
   <v>       0.08333333 </v>
   <v>       0.02083333 </v>
   <v>       0.04166667 </v>
  </varray>
 </kpoints>
 <parameters>
  <separator name="general" >
   <i type="string" name="SYSTEM">unknown system</i>
   <i type="logical" name="LCOMPAT"> F  </i>
  </separator>
  <separator name="electronic" >
   <i type="string" name="PREC">normal</i>
   <i name="ENMAX">    400.00000000</i>
   <i name="ENAUG">    342.92400000</i>
   <i name="EDIFF">      0.00000001</i>
   <i type="int" name="IALGO">    68</i>
   <i type="int" name="IWAVPR">    11</i>
   <i type="int" name="NBANDS">    48</i>
   <i type="int" name="NBANDSLOW">    -1</i>
   <i type="int" name="NBANDSHIGH">    -1</i>
   <i name="NELECT">     64.00000000</i>
   <i type="int" name="TURBO">     0</i>
   <i type="int" name="IRESTART">     0</i>
   <i type="int" name="NREBOOT">     0</i>
   <i type="int" name="NMIN">     0</i>
   <i name="EREF">      0.00000000</i>
   <separator name="electronic smearing" >
    <i type="int" name="ISMEAR">     0</i>
    <i name="SIGMA">      0.05000000</i>
    <i name="KSPACING">      0.32000000</i>
    <i type="logical" name="KGAMMA"> T  </i>
    <i type="logical" name="KBLOWUP"> T  </i>
   </separator>
   <separator name="electronic projectors" >
    <i type="logical" name="LREAL"> T  </i>
    <v name="ROPT">     -0.00050000     -0.00050000     -0.00050000</v>
    <i type="int" name="LMAXPAW">  -100</i>
    <i type="int" name="LMAXMIX">     6</i>
    <i type="logical" name="NLSPLINE"> F  </i>
   </separator>
   <separator name="electronic startup" >
    <i type="int" name="ISTART">     0</i>
    <i type="int" name="ICHARG">     2</i>
    <i type="int" name="INIWAV">     1</i>
   </separator>
   <separator name="electronic spin" >
    <i type="int" name="ISPIN">     1</i>
    <i type="logical" name="LNONCOLLINEAR"> F  </i>
    <v name="MAGMOM">      1.00000000      1.00000000      1.00000000      1.00000000      1.00000000      1.00000000      1.00000000      1.00000000      1.00000000      1.00000000      1.00000000      1.00000000      1.00000000      1.00000000      1.00000000      1.00000000</v>
    <i name="NUPDOWN">     -1.00000000</i>
    <i type="logical" name="LSORBIT"> F  </i>
    <v name="SAXIS">      0.00000000      0.00000000      1.00000000</v>
    <i type="logical" name="LSPIRAL"> F  </i>
    <v name="QSPIRAL">      0.00000000      0.00000000      0.00000000</v>
    <i type="logical" name="LZEROZ"> F  </i>
   </separator>
   <separator name="electronic exchange-correlation" >
    <i type="logical" name="LASPH"> T  </i>
    <i type="logical" name="LMETAGGA"> F  </i>
   </separator>
   <separator name="electronic convergence" >
    <i type="int" name="NELM">   150</i>
    <i type="int" name="NELMDL">    -5</i>
    <i type="int" name="NELMIN">     2</i>
    <i name="ENINI">    400.00000000</i>
    <separator name="electronic convergence detail" >
     <i type="logical" name="LDIAG"> T  </i>
     <i type="logical" name="LSUBROT"> F  </i>
     <i name="WEIMIN">      0.00100000</i>
     <i name="EBREAK">      0.00000000</i>
     <i name="DEPER">      0.30000000</i>
     <i type="int" name="NRMM">     4</i>
     <i name="TIME">      0.40000000</i>
    </separator>
   </separator>
   <separator name="electronic mixer" >
    <i name="AMIX">      0.40000000</i>
    <i name="BMIX">      1.00000000</i>
    <i name="AMIN">      0.10000000</i>
    <i name="AMIX_MAG">      1.60000000</i>
    <i name="BMIX_MAG">      1.00000000</i>
    <separator name="electronic mixer details" >
     <i type="int" name="IMIX">     4</i>
     <i type="logical" name="MIXFIRST"> F  </i>
     <i type="int" name="MAXMIX">   -45</i>
     <i name="WC">    100.00000000</i>
     <i type="int" name="INIMIX">     1</i>
     <i type="int" name="MIXPRE">     1</i>
     <i type="int" name="MREMOVE">     5</i>
    </separator>
   </separator>
   <separator name="electronic dipolcorrection" >
    <i type="logical" name="LDIPOL"> F  </i>
    <i type="logical" name="LMONO"> F  </i>
    <i type="int" name="IDIPOL">     0</i>
    <i name="EPSILON">      1.00000000</i>
    <v name="DIPOL">   -100.00000000   -100.00000000   -100.00000000</v>
    <i name="EFIELD">      0.00000000</i>
   </separator>
  </separator>
  <separator name="grids" >
   <i type="int" name="NGX">    40</i>
   <i type="int" name="NGY">    32</i>
   <i type="int" name="NGZ">    30</i>
   <i type="int" name="NGXF">    80</i>
   <i type="int" name="NGYF">    64</i>
   <i type="int" name="NGZF">    60</i>
   <i type="logical" name="ADDGRID"> F  </i>
  </separator>
  <separator name="ionic" >
   <i type="int" name="NSW">   800</i>
   <i type="int" name="IBRION">     2</i>
   <i type="int" name="MDALGO">     0</i>
   <i type="int" name="ISIF">     3</i>
   <i name="PSTRESS">      0.00000000</i>
   <i name="EDIFFG">     -0.01000000</i>
   <i type="int" name="NFREE">     1</i>
   <i name="POTIM">      0.50000000</i>
   <i name="SMASS">     -3.00000000</i>
   <i name="SCALEE">      1.00000000</i>
  </separator>
  <separator name="ionic md" >
   <i name="TEBEG">      0.00010000</i>
   <i name="TEEND">      0.00010000</i>
   <i type="int" name="NBLOCK">     1</i>
   <i type="int" name="KBLOCK">   800</i>
   <i type="int" name="NPACO">   256</i>
   <i name="APACO">     16.00000000</i>
  </separator>
  <separator name="symmetry" >
   <i type="int" name="ISYM">     2</i>
   <i name="SYMPREC">      0.00001000</i>
  </separator>
  <separator name="dos" >
   <i type="int" name="LORBIT">     0</i>
   <v name="RWIGS">     -1.00000000     -1.00000000     -1.00000000</v>
   <i type="int" name="NEDOS">   301</i>
   <i name="EMIN">     10.00000000</i>
   <i name="EMAX">    -10.00000000</i>
   <i name="EFERMI">      0.00000000</i>
  </separator>
  <separator name="writing" >
   <i type="int" name="NWRITE">     1</i>
   <i type="logical" name="LWAVE"> F  </i>
   <i type="logical" name="LDOWNSAMPLE"> F  </i>
   <i type="logical" name="LCHARG"> F  </i>
   <i type="logical" name="LPARD"> F  </i>
   <i type="logical" name="LVTOT"> F  </i>
   <i type="logical" name="LVHAR"> F  </i>
   <i type="logical" name="LELF"> F  </i>
   <i type="logical" name="LOPTICS"> F  </i>
   <v name="STM">      0.00000000      0.00000000      0.00000000      0.00000000      0.00000000      0.00000000      0.00000000</v>
  </separator>
  <separator name="performance" >
   <i type="int" name="NPAR">     8</i>
   <i type="int" name="NSIM">     4</i>
   <i type="int" name="NBLK">    -1</i>
   <i type="logical" name="LPLANE"> T  </i>
   <i type="logical" name="LSCALAPACK"> T  </i>
   <i type="logical" name="LSCAAWARE"> F  </i>
   <i type="logical" name="LSCALU"> F  </i>
   <i type="logical" name="LASYNC"> F  </i>
   <i type="logical" name="LORBITALREAL"> F  </i>
  </separator>
  <separator name="miscellaneous" >
   <i type="int" name="IDIOT">     3</i>
   <i type="int" name="PHON_NSTRUCT">    -1</i>
   <i type="logical" name="LMUSIC"> F  </i>
   <v name="POMASS">      7.01000000     30.97400000     32.06600000</v>
   <v name="DARWINR">      0.00000000      0.00000000      0.00000000</v>
   <v name="DARWINV">      1.00000000      1.00000000      1.00000000</v>
   <i type="logical" name="LCORR"> T  </i>
  </separator>
  <i type="logical" name="GGA_COMPAT"> T  </i>
  <i type="logical" name="LBERRY"> F  </i>
  <i type="int" name="ICORELEVEL">     0</i>
  <i type="logical" name="LDAU"> F  </i>
  <i type="int" name="I_CONSTRAINED_M">     0</i>
  <separator name="electronic exchange-correlation" >
   <i type="string" name="GGA">PE</i>
   <i type="int" name="VOSKOWN">     0</i>
   <i type="logical" name="LHFCALC"> F  </i>
   <i type="string" name="PRECFOCK"></i>
   <i type="logical" name="LSYMGRAD"> F  </i>
   <i type="logical" name="LHFONE"> F  </i>
   <i type="logical" name="LRHFCALC"> F  </i>
   <i type="logical" name="LTHOMAS"> F  </i>
   <i type="logical" name="LMODELHF"> F  </i>
   <i type="logical" name="LFOCKACE"> F  </i>
   <i name="ENCUT4O">     -1.00000000</i>
   <i type="int" name="EXXOEP">     0</i>
   <i type="int" name="FOURORBIT">     0</i>
   <i name="AEXX">      0.00000000</i>
   <i name="HFALPHA">      0.00000000</i>
   <i name="MCALPHA">      0.00000000</i>
   <i name="ALDAX">      1.00000000</i>
   <i name="AGGAX">      1.00000000</i>
   <i name="ALDAC">      1.00000000</i>
   <i name="AGGAC">      1.00000000</i>
   <i type="int" name="NKREDX">     1</i>
   <i type="int" name="NKREDY">     1</i>
   <i type="int" name="NKREDZ">     1</i>
   <i type="logical" name="SHIFTRED"> F  </i>
   <i type="logical" name="ODDONLY"> F  </i>
   <i type="logical" name="EVENONLY"> F  </i>
   <i type="int" name="LMAXFOCK">     0</i>
   <i type="int" name="NMAXFOCKAE">     0</i>
   <i type="logical" name="LFOCKAEDFT"> F  </i>
   <i name="HFSCREEN">      0.00000000</i>
   <i name="HFSCREENC">      0.00000000</i>
   <i type="int" name="NBANDSGWLOW">     0</i>
  </separator>
  <separator name="vdW DFT" >
   <i type="logical" name="LUSE_VDW"> F  </i>
   <i name="Zab_VDW">     -0.84910000</i>
   <i name="PARAM1">      0.12340000</i>
   <i name="PARAM2">      1.00000000</i>
   <i name="PARAM3">      0.00000000</i>
  </separator>
  <separator name="model GW" >
   <i type="int" name="MODEL_GW">     0</i>
   <i name="MODEL_EPS0">     11.59229966</i>
   <i name="MODEL_ALPHA">      1.00000000</i>
  </separator>
  <separator name="linear response parameters" >
   <i type="logical" name="LEPSILON"> F  </i>
   <i type="logical" name="LRPA"> F  </i>
   <i type="logical" name="LNABLA"> F  </i>
   <i type="logical" name="LVEL"> F  </i>
   <i type="int" name="KINTER">     0</i>
   <i name="CSHIFT">      0.10000000</i>
   <i name="OMEGAMAX">     -1.00000000</i>
   <i name="DEG_THRESHOLD">      0.00200000</i>
   <i name="RTIME">     -0.10000000</i>
   <i name="WPLASMAI">      0.00000000</i>
   <v name="DFIELD">      0.00000000      0.00000000      0.00000000</v>
   <v name="WPLASMA">      0.00000000      0.00000000      0.00000000      0.00000000      0.00000000      0.00000000      0.00000000      0.00000000      0.00000000</v>
  </separator>
  <separator name="orbital magnetization" >
   <i type="logical" name="NUCIND"> F  </i>
   <v name="MAGPOS">      0.00000000      0.00000000      0.00000000</v>
   <i type="logical" name="LNICSALL"> T  </i>
   <i type="logical" name="ORBITALMAG"> F  </i>
   <i type="logical" name="LMAGBLOCH"> F  </i>
   <i type="logical" name="LCHIMAG"> F  </i>
   <i type="logical" name="LGAUGE"> T  </i>
   <i type="int" name="MAGATOM">     0</i>
   <v name="MAGDIPOL">      0.00000000      0.00000000      0.00000000</v>
   <v name="AVECCONST">      0.00000000      0.00000000      0.00000000</v>
  </separator>
  <separator name="response functions" >
   <i type="logical" name="LFINITE_TEMPERATURE"> F  </i>
   <i type="logical" name="LADDER"> F  </i>
   <i type="logical" name="LRPAFORCE"> F  </i>
   <i type="logical" name="LFXC"> F  </i>
   <i type="logical" name="LHARTREE"> T  </i>
   <i type="int" name="IBSE">     0</i>
   <v type="int" name="KPOINT">    -1     0     0     0</v>
   <i type="logical" name="LTCTC"> F  </i>
   <i type="logical" name="LTCTE"> F  </i>
   <i type="logical" name="LTETE"> F  </i>
   <i type="logical" name="LTRIPLET"> F  </i>
   <i type="logical" name="LFXCEPS"> F  </i>
   <i type="logical" name="LFXHEG"> F  </i>
   <i type="int" name="NATURALO">     2</i>
   <i type="logical" name="LHOLEGF"> F  </i>
   <i type="logical" name="L2ORDER"> F  </i>
   <i type="logical" name="LDMP1"> F  </i>
   <i type="logical" name="LMP2LT"> F  </i>
   <i type="logical" name="LSMP2LT"> F  </i>
   <i type="logical" name="LGWLF"> F  </i>
   <i name="ENCUTGW">     -2.00000000</i>
   <i name="ENCUTGWSOFT">     -2.00000000</i>
   <i name="ENCUTLF">     -1.00000000</i>
   <i type="logical" name="LESF_SPLINES"> F  </i>
   <i type="int" name="LMAXMP2">    -1</i>
   <i name="SCISSOR">      0.00000000</i>
   <i type="int" name="NOMEGA">     0</i>
   <i type="int" name="NOMEGAR">     0</i>
   <i type="int" name="NBANDSGW">    -1</i>
   <i type="int" name="NBANDSO">    -1</i>
   <i type="int" name="NBANDSV">    -1</i>
   <i type="int" name="NELM">   150</i>
   <i type="int" name="NELMHF">     1</i>
   <i type="int" name="DIM">     3</i>
   <i type="int" name="IESPILON">     4</i>
   <i type="int" name="ANTIRES">     0</i>
   <i name="OMEGAMAX">    -30.00000000</i>
   <i name="OMEGAMIN">    -30.00000000</i>
   <i name="OMEGATL">   -200.00000000</i>
   <i type="int" name="OMEGAGRID">     0</i>
   <i name="CSHIFT">     -0.10000000</i>
   <i type="logical" name="LSELFENERGY"> F  </i>
   <i type="logical" name="LSPECTRAL"> F  </i>
   <i type="logical" name="LSPECTRALGW"> F  </i>
   <i type="logical" name="LSINGLES"> F  </i>
   <i type="logical" name="LFERMIGW"> F  </i>
   <i type="logical" name="ODDONLYGW"> F  </i>
   <i type="logical" name="EVENONLYGW"> F  </i>
   <i type="int" name="NKREDLFX">     1</i>
   <i type="int" name="NKREDLFY">     1</i>
   <i type="int" name="NKREDLFZ">     1</i>
   <i type="int" name="MAXMEM">  2800</i>
   <i type="int" name="TELESCOPE">     0</i>
   <i type="int" name="NTAUPAR">    -1</i>
   <i type="int" name="NOMEGAPAR">    -1</i>
   <i name="DAMP_NEWTON">      0.80000001</i>
   <i name="LAMBDA">      1.00000000</i>
  </separator>
  <separator name="External order field" >
   <i name="OFIELD_KAPPA">      0.00000000</i>
   <v name="OFIELD_K">      0.00000000      0.00000000      0.00000000</v>
   <i name="OFIELD_Q6_NEAR">      0.00000000</i>
   <i name="OFIELD_Q6_FAR">      0.00000000</i>
   <i name="OFIELD_A">      0.00000000</i>
  </separator>
 </parameters>
 <atominfo>
  <atoms>      16 </atoms>
  <types>       3 </types>
  <array name="atoms" >
   <dimension dim="1">ion</dimension>
   <field type="string">element</field>
   <field type="int">atomtype</field>
   <set>
    <rc><c>Li</c><c>   1</c></rc>
    <rc><c>Li</c><c>   1</c></rc>
    <rc><c>Li</c><c>   1</c></rc>
    <rc><c>Li</c><c>   1</c></rc>
    <rc><c>Li</c><c>   1</c></rc>
    <rc><c>Li</c><c>   1</c></rc>
    <rc><c>P </c><c>   2</c></rc>
    <rc><c>P </c><c>   2</c></rc>
    <rc><c>S </c><c>   3</c></rc>
    <rc><c>S </c><c>   3</c></rc>
    <rc><c>S </c><c>   3</c></rc>
    <rc><c>S </c><c>   3</c></rc>
    <rc><c>S </c><c>   3</c></rc>
    <rc><c>S </c><c>   3</c></rc>
    <rc><c>S </c><c>   3</c></rc>
    <rc><c>S </c><c>   3</c></rc>
   </set>
  </array>
  <array name="atomtypes" >
   <dimension dim="1">type</dimension>
   <field type="int">atomspertype</field>
   <field type="string">element</field>
   <field>mass</field>
   <field>valence</field>
   <field type="string">pseudopotential</field>
   <set>
    <rc><c>   6</c><c>Li</c><c>      7.01000000</c><c>      1.00000000</c><c>  PAW_PBE Li 17Jan2003                  </c></rc>
    <rc><c>   2</c><c>P </c><c>     30.97400000</c><c>      5.00000000</c><c>  PAW_PBE P 06Sep2000                   </c></rc>
    <rc><c>   8</c><c>S </c><c>     32.06600000</c><c>      6.00000000</c><c>  PAW_PBE S 06Sep2000                   </c></rc>
   </set>
  </array>
 </atominfo>
 <structure name="initialpos" >
  <crystal>
   <varray name="basis" >
    <v>       7.70829000       0.00000000       0.00000000 </v>
    <v>       0.00000000       6.53521000       0.00000000 </v>
    <v>       0.00000000       0.00000000       6.13650000 </v>
   </varray>
   <i name="volume">    309.12799096 </i>
   <varray name="rec_basis" >
    <v>       0.12973046       0.00000000       0.00000000 </v>
    <v>       0.00000000       0.15301727       0.00000000 </v>
    <v>       0.00000000       0.00000000       0.16295934 </v>
   </varray>
  </crystal>
  <varray name="positions" >
   <v>       0.75020000       0.66910000       0.51790000 </v>
   <v>       0.24980000       0.66910000       0.51790000 </v>
   <v>       0.74980000       0.33090000       0.01790000 </v>
   <v>       0.25020000       0.33090000       0.01790000 </v>
   <v>       0.50000000       0.85500000       0.98600000 </v>
   <v>       0.00000000       0.14500000       0.48600000 </v>
   <v>       0.50000000       0.17820000       0.49420000 </v>
   <v>       0.00000000       0.82180000       0.99420000 </v>
   <v>       0.71850000       0.32830000       0.38570000 </v>
   <v>       0.28150000       0.32830000       0.38570000 </v>
   <v>       0.78150000       0.67170000       0.88570000 </v>
   <v>       0.21850000       0.67170000       0.88570000 </v>
   <v>       0.50000000       0.89170000       0.38800000 </v>
   <v>       0.00000000       0.10830000       0.88800000 </v>
   <v>       0.50000000       0.19510000       0.82300000 </v>
   <v>       0.00000000       0.80490000       0.32300000 </v>
  </varray>
 </structure>
 <calculation>
  <scstep>
   <time name="dav">    0.46    0.47</time>
   <time name="total">    0.51    0.52</time>
   <energy>
    <i name="alphaZ">     53.22498650 </i>
    <i name="ewald">  -2082.17725705 </i>
    <i name="hartreedc">   -555.27556779 </i>
    <i name="XCdc">     81.56953856 </i>
    <i name="pawpsdc">   2065.36880927 </i>
    <i name="pawaedc">  -1990.17295160 </i>
    <i name="eentropy">     -0.01175171 </i>
    <i name="bandstr">     98.55247428 </i>
    <i name="atom">   2598.42919538 </i>
    <i name="e_fr_energy">    269.50747585 </i>
    <i name="e_wo_entrp">    269.51922756 </i>
    <i name="e_0_energy">    269.51335171 </i>
   </energy>
  </scstep>
  <scstep>
   <time name="dav">    0.61    0.67</time>
   <time name="total">    0.61    0.67</time>
   <energy>
    <i name="e_fr_energy">    -45.43001721 </i>
    <i name="e_wo_entrp">    -45.43001721 </i>
    <i name="e_0_energy">    -45.43001721 </i>
   </energy>
  </scstep>
  <scstep>
   <time name="dav">    0.51    0.51</time>
   <time name="total">    0.51    0.51</time>
   <energy>
    <i name="e_fr_energy">    -71.75151059 </i>
    <i name="e_wo_entrp">    -71.75151059 </i>
    <i name="e_0_energy">    -71.75151059 </i>
   </energy>
  </scstep>
  <scstep>
   <time name="dav">    0.50    0.50</time>
   <time name="total">    0.50    0.50</time>
   <energy>
    <i name="e_fr_energy">    -72.22679685 </i>
    <i name="e_wo_entrp">    -72.22679685 </i>
    <i name="e_0_energy">    -72.22679685 </i>
   </energy>
  </scstep>
  <scstep>
   <time name="dav">    0.48    0.48</time>
   <time name="total">    0.50    0.50</time>
   <energy>
    <i name="e_fr_energy">    -72.23940640 </i>
    <i name="e_wo_entrp">    -72.23940640 </i>
    <i name="e_0_energy">    -72.23940640 </i>
   </energy>
  </scstep>
  <scstep>
   <time name="diag">    0.26    0.36</time>
   <time name="diis">    0.11    0.11</time>
   <time name="orth">    0.02    0.02</time>
   <time name="total">    0.46    0.56</time>
   <energy>
    <i name="e_fr_energy">    -70.06918445 </i>
    <i name="e_wo_entrp">    -70.06918445 </i>
    <i name="e_0_energy">    -70.06918445 </i>
   </energy>
  </scstep>
  <scstep>
   <time name="diag">    0.14    0.14</time>
   <time name="diis">    0.05    0.05</time>
   <time name="orth">    0.01    0.01</time>
   <time name="total">    0.27    0.27</time>
   <energy>
    <i name="e_fr_energy">    -70.02498589 </i>
    <i name="e_wo_entrp">    -70.02498589 </i>
    <i name="e_0_energy">    -70.02498589 </i>
   </energy>
  </scstep>
  <scstep>
   <time name="diag">    0.14    0.14</time>
   <time name="diis">    0.05    0.05</time>
   <time name="orth">    0.01    0.01</time>
   <time name="total">    0.25    0.25</time>
   <energy>
    <i name="e_fr_energy">    -69.97623137 </i>
    <i name="e_wo_entrp">    -69.97623137 </i>
    <i name="e_0_energy">    -69.97623137 </i>
   </energy>
  </scstep>
  <scstep>
   <time name="diag">    0.13    0.13</time>
   <time name="diis">    0.06    0.06</time>
   <time name="orth">    0.01    0.01</time>
   <time name="total">    0.25    0.25</time>
   <energy>
    <i name="e_fr_energy">    -69.97680726 </i>
    <i name="e_wo_entrp">    -69.97680726 </i>
    <i name="e_0_energy">    -69.97680726 </i>
   </energy>
  </scstep>
  <scstep>
   <time name="diag">    0.14    0.14</time>
   <time name="diis">    0.05    0.05</time>
   <time name="orth">    0.01    0.01</time>
   <time name="total">    0.25    0.25</time>
   <energy>
    <i name="e_fr_energy">    -69.97704264 </i>
    <i name="e_wo_entrp">    -69.97704264 </i>
    <i name="e_0_energy">    -69.97704264 </i>
   </energy>
  </scstep>
  <scstep>
   <time name="diag">    0.13    0.13</time>
   <time name="diis">    0.05    0.05</time>
   <time name="orth">    0.01    0.01</time>
   <time name="total">    0.25    0.25</time>
   <energy>
    <i name="e_fr_energy">    -69.97879815 </i>
    <i name="e_wo_entrp">    -69.97879815 </i>
    <i name="e_0_energy">    -69.97879815 </i>
   </energy>
  </scstep>
  <scstep>
   <time name="diag">    0.13    0.14</time>
   <time name="diis">    0.05    0.05</time>
   <time name="orth">    0.01    0.01</time>
   <time name="total">    0.25    0.25</time>
   <energy>
    <i name="e_fr_energy">    -69.97894803 </i>
    <i name="e_wo_entrp">    -69.97894803 </i>
    <i name="e_0_energy">    -69.97894803 </i>
   </energy>
  </scstep>
  <scstep>
   <time name="diag">    0.13    0.13</time>
   <time name="diis">    0.05    0.05</time>
   <time name="orth">    0.01    0.01</time>
   <time name="total">    0.25    0.25</time>
   <energy>
    <i name="e_fr_energy">    -69.97897209 </i>
    <i name="e_wo_entrp">    -69.97897209 </i>
    <i name="e_0_energy">    -69.97897209 </i>
   </energy>
  </scstep>
  <scstep>
   <time name="diag">    0.22    0.26</time>
   <time name="diis">    0.07    0.07</time>
   <time name="orth">    0.01    0.01</time>
   <time name="total">    0.35    0.40</time>
   <energy>
    <i name="e_fr_energy">    -69.97898926 </i>
    <i name="e_wo_entrp">    -69.97898926 </i>
    <i name="e_0_energy">    -69.97898926 </i>
   </energy>
  </scstep>
  <scstep>
   <time name="diag">    0.18    0.18</time>
   <time name="diis">    0.05    0.05</time>
   <time name="orth">    0.01    0.01</time>
   <time name="total">    0.29    0.29</time>
   <energy>
    <i name="e_fr_energy">    -69.97895602 </i>
    <i name="e_wo_entrp">    -69.97895602 </i>
    <i name="e_0_energy">    -69.97895602 </i>
   </energy>
  </scstep>
  <scstep>
   <time name="diag">    0.19    0.19</time>
   <time name="diis">    0.07    0.07</time>
   <time name="orth">    0.01    0.01</time>
   <time name="total">    0.32    0.32</time>
   <energy>
    <i name="e_fr_energy">    -69.97887653 </i>
    <i name="e_wo_entrp">    -69.97887653 </i>
    <i name="e_0_energy">    -69.97887653 </i>
   </energy>
  </scstep>
  <scstep>
   <time name="diag">    0.23    0.23</time>
   <time name="diis">    0.12    0.12</time>
   <time name="orth">    0.01    0.01</time>
   <time name="total">    0.42    0.43</time>
   <energy>
    <i name="e_fr_energy">    -69.97887852 </i>
    <i name="e_wo_entrp">    -69.97887852 </i>
    <i name="e_0_energy">    -69.97887852 </i>
   </energy>
  </scstep>
  <scstep>
   <time name="diag">    0.18    0.18</time>
   <time name="diis">    0.08    0.08</time>
   <time name="orth">    0.01    0.01</time>
   <time name="total">    0.34    0.35</time>
   <energy>
    <i name="e_fr_energy">    -69.97887585 </i>
    <i name="e_wo_entrp">    -69.97887585 </i>
    <i name="e_0_energy">    -69.97887585 </i>
   </energy>
  </scstep>
  <scstep>
   <time name="diag">    0.14    0.14</time>
   <time name="diis">    0.05    0.05</time>
   <time name="orth">    0.01    0.01</time>
   <time name="total">    0.26    0.26</time>
   <energy>
    <i name="e_fr_energy">    -69.97887653 </i>
    <i name="e_wo_entrp">    -69.97887653 </i>
    <i name="e_0_energy">    -69.97887653 </i>
   </energy>
  </scstep>
  <scstep>
   <time name="diag">    0.13    0.13</time>
   <time name="diis">    0.09    0.14</time>
   <time name="orth">    0.12    0.18</time>
   <time name="total">    0.40    0.51</time>
   <energy>
    <i name="e_fr_energy">    -69.97885099 </i>
    <i name="e_wo_entrp">    -69.97885099 </i>
    <i name="e_0_energy">    -69.97885099 </i>
   </energy>
  </scstep>
  <scstep>
   <time name="diag">    0.13    0.13</time>
   <time name="diis">    0.05    0.05</time>
   <time name="orth">    0.01    0.01</time>
   <time name="total">    0.25    0.25</time>
   <energy>
    <i name="e_fr_energy">    -69.97884770 </i>
    <i name="e_wo_entrp">    -69.97884770 </i>
    <i name="e_0_energy">    -69.97884770 </i>
   </energy>
  </scstep>
  <scstep>
   <time name="diag">    0.13    0.14</time>
   <time name="diis">    0.06    0.06</time>
   <time name="orth">    0.01    0.01</time>
   <time name="total">    0.26    0.26</time>
   <energy>
    <i name="e_fr_energy">    -69.97884409 </i>
    <i name="e_wo_entrp">    -69.97884409 </i>
    <i name="e_0_energy">    -69.97884409 </i>
   </energy>
  </scstep>
  <scstep>
   <time name="diag">    0.14    0.14</time>
   <time name="diis">    0.06    0.06</time>
   <time name="orth">    0.01    0.01</time>
   <time name="total">    0.26    0.26</time>
   <energy>
    <i name="e_fr_energy">    -69.97884173 </i>
    <i name="e_wo_entrp">    -69.97884173 </i>
    <i name="e_0_energy">    -69.97884173 </i>
   </energy>
  </scstep>
  <scstep>
   <time name="diag">    0.14    0.14</time>
   <time name="diis">    0.05    0.05</time>
   <time name="orth">    0.01    0.01</time>
   <time name="total">    0.25    0.25</time>
   <energy>
    <i name="e_fr_energy">    -69.97884098 </i>
    <i name="e_wo_entrp">    -69.97884098 </i>
    <i name="e_0_energy">    -69.97884098 </i>
   </energy>
  </scstep>
  <scstep>
   <time name="diag">    0.13    0.14</time>
   <time name="diis">    0.05    0.05</time>
   <time name="orth">    0.01    0.01</time>
   <time name="total">    0.25    0.25</time>
   <energy>
    <i name="e_fr_energy">    -69.97884035 </i>
    <i name="e_wo_entrp">    -69.97884035 </i>
    <i name="e_0_energy">    -69.97884035 </i>
   </energy>
  </scstep>
  <scstep>
   <time name="diag">    0.14    0.14</time>
   <time name="diis">    0.05    0.05</time>
   <time name="orth">    0.01    0.01</time>
   <time name="total">    0.25    0.25</time>
   <energy>
    <i name="e_fr_energy">    -69.97884007 </i>
    <i name="e_wo_entrp">    -69.97884007 </i>
    <i name="e_0_energy">    -69.97884007 </i>
   </energy>
  </scstep>
  <scstep>
   <time name="diag">    0.13    0.14</time>
   <time name="diis">    0.05    0.05</time>
   <time name="orth">    0.01    0.01</time>
   <time name="total">    0.25    0.25</time>
   <energy>
    <i name="e_fr_energy">    -69.97884000 </i>
    <i name="e_wo_entrp">    -69.97884000 </i>
    <i name="e_0_energy">    -69.97884000 </i>
   </energy>
  </scstep>
  <scstep>
   <time name="diag">    0.13    0.13</time>
   <time name="diis">    0.16    0.16</time>
   <time name="orth">    0.01    0.01</time>
   <time name="total">    0.36    0.36</time>
   <energy>
    <i name="e_fr_energy">    -69.97883982 </i>
    <i name="e_wo_entrp">    -69.97883982 </i>
    <i name="e_0_energy">    -69.97883982 </i>
   </energy>
  </scstep>
  <scstep>
   <time name="diag">    0.14    0.14</time>
   <time name="diis">    0.05    0.05</time>
   <time name="orth">    0.01    0.01</time>
   <time name="total">    0.25    0.25</time>
   <energy>
    <i name="e_fr_energy">    -69.97883979 </i>
    <i name="e_wo_entrp">    -69.97883979 </i>
    <i name="e_0_energy">    -69.97883979 </i>
   </energy>
  </scstep>
  <scstep>
   <time name="diag">    0.13    0.14</time>
   <time name="diis">    0.05    0.05</time>
   <time name="orth">    0.01    0.01</time>
   <time name="total">    0.25    0.25</time>
   <energy>
    <i name="e_fr_energy">    -69.97883974 </i>
    <i name="e_wo_entrp">    -69.97883974 </i>
    <i name="e_0_energy">    -69.97883974 </i>
   </energy>
  </scstep>
  <scstep>
   <time name="diag">    0.14    0.14</time>
   <time name="diis">    0.05    0.05</time>
   <time name="orth">    0.01    0.01</time>
   <time name="total">    0.25    0.25</time>
   <energy>
    <i name="e_fr_energy">    -69.97883976 </i>
    <i name="e_wo_entrp">    -69.97883976 </i>
    <i name="e_0_energy">    -69.97883976 </i>
   </energy>
  </scstep>
  <scstep>
   <time name="diag">    0.13    0.14</time>
   <time name="diis">    0.04    0.04</time>
   <time name="orth">    0.01    0.01</time>
   <time name="total">    0.23    0.23</time>
   <energy>
    <i name="alphaZ">     53.22498650 </i>
    <i name="ewald">  -2082.17725705 </i>
    <i name="hartreedc">   -592.29992136 </i>
    <i name="XCdc">     86.20565169 </i>
    <i name="pawpsdc">   7075.96360925 </i>
    <i name="pawaedc">  -7002.77839453 </i>
    <i name="eentropy">     -0.00000000 </i>
    <i name="bandstr">   -206.54670964 </i>
    <i name="atom">   2598.42919538 </i>
    <i name="e_fr_energy">    -69.97883977 </i>
    <i name="e_wo_entrp">    -69.97883977 </i>
    <i name="e_0_energy">    -69.97883977 </i>
   </energy>
  </scstep>
  <structure>
   <crystal>
    <varray name="basis" >
     <v>       7.70829000       0.00000000       0.00000000 </v>
     <v>       0.00000000       6.53521000       0.00000000 </v>
     <v>       0.00000000       0.00000000       6.13650000 </v>
    </varray>
    <i name="volume">    309.12799096 </i>
    <varray name="rec_basis" >
     <v>       0.12973046       0.00000000       0.00000000 </v>
     <v>       0.00000000       0.15301727       0.00000000 </v>
     <v>       0.00000000       0.00000000       0.16295934 </v>
    </varray>
   </crystal>
   <varray name="positions" >
    <v>       0.75020000       0.66910000       0.51790000 </v>
    <v>       0.24980000       0.66910000       0.51790000 </v>
    <v>       0.74980000       0.33090000       0.01790000 </v>
    <v>       0.25020000       0.33090000       0.01790000 </v>
    <v>       0.50000000       0.85500000       0.98600000 </v>
    <v>       0.00000000       0.14500000       0.48600000 </v>
    <v>       0.50000000       0.17820000       0.49420000 </v>
    <v>       0.00000000       0.82180000       0.99420000 </v>
    <v>       0.71850000       0.32830000       0.38570000 </v>
    <v>       0.28150000       0.32830000       0.38570000 </v>
    <v>       0.78150000       0.67170000       0.88570000 </v>
    <v>       0.21850000       0.67170000       0.88570000 </v>
    <v>       0.50000000       0.89170000       0.38800000 </v>
    <v>       0.00000000       0.10830000       0.88800000 </v>
    <v>       0.50000000       0.19510000       0.82300000 </v>
    <v>       0.00000000       0.80490000       0.32300000 </v>
   </varray>
  </structure>
  <varray name="forces" >
   <v>      -0.11551448       0.23381899      -0.50636385 </v>
   <v>       0.11551448       0.23381899      -0.50636385 </v>
   <v>       0.11551448      -0.23381899      -0.50636385 </v>
   <v>      -0.11551448      -0.23381899      -0.50636385 </v>
   <v>      -0.00000000       0.05323158      -0.02688575 </v>
   <v>      -0.00000000      -0.05323158      -0.02688575 </v>
   <v>      -0.00000000       0.84642639       0.03564252 </v>
   <v>      -0.00000000      -0.84642639       0.03564252 </v>
   <v>       0.11617318       0.01809601       0.24056877 </v>
   <v>      -0.11617318       0.01809601       0.24056877 </v>
   <v>      -0.11617318      -0.01809601       0.24056877 </v>
   <v>       0.11617318      -0.01809601       0.24056877 </v>
   <v>      -0.00000000      -1.24354712      -0.29281098 </v>
   <v>      -0.00000000       1.24354712      -0.29281098 </v>
   <v>      -0.00000000      -0.01395084       0.81564435 </v>
   <v>      -0.00000000       0.01395084       0.81564435 </v>
  </varray>
  <varray name="stress" >
   <v>       4.93278038       0.00000000       0.00000000 </v>
   <v>       0.00000000      30.95698688       0.00000000 </v>
   <v>       0.00000000       0.00000000      44.99141306 </v>
  </varray>
  <energy>
   <i name="e_fr_energy">    -69.97883977 </i>
   <i name="e_wo_entrp">    -69.97883977 </i>
   <i name="e_0_energy">    -69.97883977 </i>
  </energy>
  <time name="totalsc">   10.61   10.97</time>
 </calculation>
 <calculation>
  <scstep>
   <time name="dav">    0.45    0.46</time>
   <time name="total">    0.51    0.51</time>
   <energy>
    <i name="alphaZ">     50.80405039 </i>
    <i name="ewald">  -2070.49273100 </i>
    <i name="hartreedc">   -566.56835992 </i>
    <i name="XCdc">     83.71382103 </i>
    <i name="pawpsdc">   7075.92113331 </i>
    <i name="pawaedc">  -7002.73592644 </i>
    <i name="eentropy">     -0.00000000 </i>
    <i name="bandstr">   -239.52511028 </i>
    <i name="atom">   2598.42919538 </i>
    <i name="e_fr_energy">    -70.45392752 </i>
    <i name="e_wo_entrp">    -70.45392752 </i>
    <i name="e_0_energy">    -70.45392752 </i>
   </energy>
  </scstep>
  <scstep>
   <time name="diag">    0.16    0.16</time>
   <time name="diis">    0.07    0.12</time>
   <time name="orth">    0.12    0.18</time>
   <time name="total">    0.42    0.53</time>
   <energy>
    <i name="e_fr_energy">    -70.22423921 </i>
    <i name="e_wo_entrp">    -70.22423921 </i>
    <i name="e_0_energy">    -70.22423921 </i>
   </energy>
  </scstep>
  <scstep>
   <time name="diag">    0.14    0.14</time>
   <time name="diis">    0.05    0.05</time>
   <time name="orth">    0.01    0.01</time>
   <time name="total">    0.26    0.26</time>
   <energy>
    <i name="e_fr_energy">    -70.14467716 </i>
    <i name="e_wo_entrp">    -70.14467716 </i>
    <i name="e_0_energy">    -70.14467716 </i>
   </energy>
  </scstep>
  <scstep>
   <time name="diag">    0.14    0.14</time>
   <time name="diis">    0.06    0.06</time>
   <time name="orth">    0.01    0.01</time>
   <time name="total">    0.26    0.26</time>
   <energy>
    <i name="e_fr_energy">    -70.13521337 </i>
    <i name="e_wo_entrp">    -70.13521337 </i>
    <i name="e_0_energy">    -70.13521337 </i>
   </energy>
  </scstep>
  <scstep>
   <time name="diag">    0.13    0.14</time>
   <time name="diis">    0.05    0.05</time>
   <time name="orth">    0.01    0.01</time>
   <time name="total">    0.25    0.25</time>
   <energy>
    <i name="e_fr_energy">    -70.13570848 </i>
    <i name="e_wo_entrp">    -70.13570848 </i>
    <i name="e_0_energy">    -70.13570848 </i>
   </energy>
  </scstep>
  <scstep>
   <time name="diag">    0.13    0.13</time>
   <time name="diis">    0.05    0.05</time>
   <time name="orth">    0.01    0.01</time>
   <time name="total">    0.25    0.25</time>
   <energy>
    <i name="e_fr_energy">    -70.13608758 </i>
    <i name="e_wo_entrp">    -70.13608758 </i>
    <i name="e_0_energy">    -70.13608758 </i>
   </energy>
  </scstep>
  <scstep>
   <time name="diag">    0.13    0.13</time>
   <time name="diis">    0.05    0.05</time>
   <time name="orth">    0.01    0.01</time>
   <time name="total">    0.25    0.25</time>
   <energy>
    <i name="e_fr_energy">    -70.13615894 </i>
    <i name="e_wo_entrp">    -70.13615894 </i>
    <i name="e_0_energy">    -70.13615894 </i>
   </energy>
  </scstep>
  <scstep>
   <time name="diag">    0.13    0.13</time>
   <time name="diis">    0.05    0.05</time>
   <time name="orth">    0.01    0.01</time>
   <time name="total">    0.25    0.25</time>
   <energy>
    <i name="e_fr_energy">    -70.13614619 </i>
    <i name="e_wo_entrp">    -70.13614619 </i>
    <i name="e_0_energy">    -70.13614619 </i>
   </energy>
  </scstep>
  <scstep>
   <time name="diag">    0.13    0.13</time>
   <time name="diis">    0.05    0.05</time>
   <time name="orth">    0.01    0.01</time>
   <time name="total">    0.25    0.25</time>
   <energy>
    <i name="e_fr_energy">    -70.13613714 </i>
    <i name="e_wo_entrp">    -70.13613714 </i>
    <i name="e_0_energy">    -70.13613714 </i>
   </energy>
  </scstep>
  <scstep>
   <time name="diag">    0.13    0.13</time>
   <time name="diis">    0.09    0.14</time>
   <time name="orth">    0.02    0.02</time>
   <time name="total">    0.29    0.35</time>
   <energy>
    <i name="e_fr_energy">    -70.13612599 </i>
    <i name="e_wo_entrp">    -70.13612599 </i>
    <i name="e_0_energy">    -70.13612599 </i>
   </energy>
  </scstep>
  <scstep>
   <time name="diag">    0.13    0.13</time>
   <time name="diis">    0.05    0.05</time>
   <time name="orth">    0.01    0.01</time>
   <time name="total">    0.25    0.25</time>
   <energy>
    <i name="e_fr_energy">    -70.13613048 </i>
    <i name="e_wo_entrp">    -70.13613048 </i>
    <i name="e_0_energy">    -70.13613048 </i>
   </energy>
  </scstep>
  <scstep>
   <time name="diag">    0.13    0.13</time>
   <time name="diis">    0.05    0.05</time>
   <time name="orth">    0.01    0.01</time>
   <time name="total">    0.25    0.25</time>
   <energy>
    <i name="e_fr_energy">    -70.13612895 </i>
    <i name="e_wo_entrp">    -70.13612895 </i>
    <i name="e_0_energy">    -70.13612895 </i>
   </energy>
  </scstep>
  <scstep>
   <time name="diag">    0.13    0.13</time>
   <time name="diis">    0.05    0.05</time>
   <time name="orth">    0.01    0.01</time>
   <time name="total">    0.25    0.25</time>
   <energy>
    <i name="e_fr_energy">    -70.13612931 </i>
    <i name="e_wo_entrp">    -70.13612931 </i>
    <i name="e_0_energy">    -70.13612931 </i>
   </energy>
  </scstep>
  <scstep>
   <time name="diag">    0.14    0.14</time>
   <time name="diis">    0.06    0.06</time>
   <time name="orth">    0.01    0.01</time>
   <time name="total">    0.26    0.26</time>
   <energy>
    <i name="e_fr_energy">    -70.13612951 </i>
    <i name="e_wo_entrp">    -70.13612951 </i>
    <i name="e_0_energy">    -70.13612951 </i>
   </energy>
  </scstep>
  <scstep>
   <time name="diag">    0.13    0.13</time>
   <time name="diis">    0.05    0.05</time>
   <time name="orth">    0.01    0.01</time>
   <time name="total">    0.25    0.25</time>
   <energy>
    <i name="e_fr_energy">    -70.13612967 </i>
    <i name="e_wo_entrp">    -70.13612967 </i>
    <i name="e_0_energy">    -70.13612967 </i>
   </energy>
  </scstep>
  <scstep>
   <time name="diag">    0.13    0.13</time>
   <time name="diis">    0.04    0.04</time>
   <time name="orth">    0.01    0.01</time>
   <time name="total">    0.24    0.24</time>
   <energy>
    <i name="e_fr_energy">    -70.13612972 </i>
    <i name="e_wo_entrp">    -70.13612972 </i>
    <i name="e_0_energy">    -70.13612972 </i>
   </energy>
  </scstep>
  <scstep>
   <time name="diag">    0.13    0.13</time>
   <time name="diis">    0.04    0.04</time>
   <time name="orth">    0.01    0.01</time>
   <time name="total">    0.23    0.23</time>
   <energy>
    <i name="e_fr_energy">    -70.13612967 </i>
    <i name="e_wo_entrp">    -70.13612967 </i>
    <i name="e_0_energy">    -70.13612967 </i>
   </energy>
  </scstep>
  <scstep>
   <time name="diag">    0.14    0.14</time>
   <time name="diis">    0.04    0.04</time>
   <time name="orth">    0.01    0.01</time>
   <time name="total">    0.24    0.24</time>
   <energy>
    <i name="e_fr_energy">    -70.13612966 </i>
    <i name="e_wo_entrp">    -70.13612966 </i>
    <i name="e_0_energy">    -70.13612966 </i>
   </energy>
  </scstep>
  <scstep>
   <time name="diag">    0.25    0.36</time>
   <time name="diis">    0.03    0.03</time>
   <time name="orth">    0.01    0.01</time>
   <time name="total">    0.36    0.46</time>
   <energy>
    <i name="alphaZ">     50.80405039 </i>
    <i name="ewald">  -2070.49273100 </i>
    <i name="hartreedc">   -587.17096622 </i>
    <i name="XCdc">     84.66185486 </i>
    <i name="pawpsdc">   6281.29773081 </i>
    <i name="pawaedc">  -6207.80206849 </i>
    <i name="eentropy">     -0.00000000 </i>
    <i name="bandstr">   -219.86319539 </i>
    <i name="atom">   2598.42919538 </i>
    <i name="e_fr_energy">    -70.13612966 </i>
    <i name="e_wo_entrp">    -70.13612966 </i>
    <i name="e_0_energy">    -70.13612966 </i>
   </energy>
  </scstep>
  <structure>
   <crystal>
    <varray name="basis" >
     <v>       7.73041019       0.00000000       0.00000000 </v>
     <v>       0.00000000       6.65290478       0.00000000 </v>
     <v>       0.00000000       0.00000000       6.29711619 </v>
    </varray>
    <i name="volume">    323.85868878 </i>
    <varray name="rec_basis" >
     <v>       0.12935924       0.00000000       0.00000000 </v>
     <v>       0.00000000       0.15031028       0.00000000 </v>
     <v>       0.00000000       0.00000000       0.15880285 </v>
    </varray>
   </crystal>
   <varray name="positions" >
    <v>       0.74947705       0.67082604       0.51391917 </v>
    <v>       0.25052295       0.67082604       0.51391917 </v>
    <v>       0.75052295       0.32917396       0.01391917 </v>
    <v>       0.24947705       0.32917396       0.01391917 </v>
    <v>       0.50000000       0.85539295       0.98578864 </v>
    <v>      -0.00000000       0.14460705       0.48578864 </v>
    <v>       0.50000000       0.18444829       0.49448021 </v>
    <v>      -0.00000000       0.81555171       0.99448021 </v>
    <v>       0.71922707       0.32843358       0.38759125 </v>
    <v>       0.28077293       0.32843358       0.38759125 </v>
    <v>       0.78077293       0.67156642       0.88759125 </v>
    <v>       0.21922707       0.67156642       0.88759125 </v>
    <v>       0.50000000       0.88252019       0.38569804 </v>
    <v>      -0.00000000       0.11747981       0.88569804 </v>
    <v>       0.50000000       0.19499702       0.82941226 </v>
    <v>      -0.00000000       0.80500298       0.32941226 </v>
   </varray>
  </structure>
  <varray name="forces" >
   <v>      -0.11130547       0.21736444      -0.27756710 </v>
   <v>       0.11130547       0.21736444      -0.27756710 </v>
   <v>       0.11130547      -0.21736444      -0.27756710 </v>
   <v>      -0.11130547      -0.21736444      -0.27756710 </v>
   <v>       0.00000000       0.11535162       0.05088037 </v>
   <v>       0.00000000      -0.11535162       0.05088037 </v>
   <v>       0.00000000      -0.85900896       0.44554755 </v>
   <v>       0.00000000       0.85900896       0.44554755 </v>
   <v>      -0.03963976      -0.05369364       0.13858605 </v>
   <v>       0.03963976      -0.05369364       0.13858605 </v>
   <v>       0.03963976       0.05369364       0.13858605 </v>
   <v>      -0.03963976       0.05369364       0.13858605 </v>
   <v>       0.00000000       0.74299452       0.35738951 </v>
   <v>       0.00000000      -0.74299452       0.35738951 </v>
   <v>       0.00000000      -0.06966952      -0.57585531 </v>
   <v>       0.00000000       0.06966952      -0.57585531 </v>
  </varray>
  <varray name="stress" >
   <v>      -2.77702175       0.00000000       0.00000000 </v>
   <v>       0.00000000     -18.97531804       0.00000000 </v>
   <v>       0.00000000       0.00000000     -11.64245594 </v>
  </varray>
  <energy>
   <i name="e_fr_energy">    -70.13612966 </i>
   <i name="e_wo_entrp">    -70.13612966 </i>
   <i name="e_0_energy">    -70.13612966 </i>
  </energy>
  <time name="totalsc">    5.55    5.84</time>
 </calculation>
 <calculation>
  <scstep>
   <time name="dav">    0.47    0.47</time>
   <time name="total">    0.52    0.52</time>
   <energy>
    <i name="alphaZ">     51.65870295 </i>
    <i name="ewald">  -2075.31059886 </i>
    <i name="hartreedc">   -596.00650922 </i>
    <i name="XCdc">     85.54538806 </i>
    <i name="pawpsdc">   6281.30570146 </i>
    <i name="pawaedc">  -6207.81003615 </i>
    <i name="eentropy">     -0.00000000 </i>
    <i name="bandstr">   -208.04882692 </i>
    <i name="atom">   2598.42919538 </i>
    <i name="e_fr_energy">    -70.23698330 </i>
    <i name="e_wo_entrp">    -70.23698330 </i>
    <i name="e_0_energy">    -70.23698330 </i>
   </energy>
  </scstep>
  <scstep>
   <time name="diag">    0.14    0.15</time>
   <time name="diis">    0.05    0.05</time>
   <time name="orth">    0.01    0.01</time>
   <time name="total">    0.26    0.26</time>
   <energy>
    <i name="e_fr_energy">    -70.20241986 </i>
    <i name="e_wo_entrp">    -70.20241986 </i>
    <i name="e_0_energy">    -70.20241986 </i>
   </energy>
  </scstep>
  <scstep>
   <time name="diag">    0.13    0.13</time>
   <time name="diis">    0.05    0.05</time>
   <time name="orth">    0.01    0.01</time>
   <time name="total">    0.25    0.25</time>
   <energy>
    <i name="e_fr_energy">    -70.19169315 </i>
    <i name="e_wo_entrp">    -70.19169315 </i>
    <i name="e_0_energy">    -70.19169315 </i>
   </energy>
  </scstep>
  <scstep>
   <time name="diag">    0.13    0.13</time>
   <time name="diis">    0.05    0.05</time>
   <time name="orth">    0.01    0.01</time>
   <time name="total">    0.25    0.25</time>
   <energy>
    <i name="e_fr_energy">    -70.19149934 </i>
    <i name="e_wo_entrp">    -70.19149934 </i>
    <i name="e_0_energy">    -70.19149934 </i>
   </energy>
  </scstep>
  <scstep>
   <time name="diag">    0.13    0.13</time>
   <time name="diis">    0.05    0.05</time>
   <time name="orth">    0.01    0.01</time>
   <time name="total">    0.25    0.25</time>
   <energy>
    <i name="e_fr_energy">    -70.19155069 </i>
    <i name="e_wo_entrp">    -70.19155069 </i>
    <i name="e_0_energy">    -70.19155069 </i>
   </energy>
  </scstep>
  <scstep>
   <time name="diag">    0.25    0.25</time>
   <time name="diis">    0.05    0.05</time>
   <time name="orth">    0.01    0.01</time>
   <time name="total">    0.36    0.37</time>
   <energy>
    <i name="e_fr_energy">    -70.19160111 </i>
    <i name="e_wo_entrp">    -70.19160111 </i>
    <i name="e_0_energy">    -70.19160111 </i>
   </energy>
  </scstep>
  <scstep>
   <time name="diag">    0.13    0.13</time>
   <time name="diis">    0.05    0.05</time>
   <time name="orth">    0.01    0.01</time>
   <time name="total">    0.25    0.25</time>
   <energy>
    <i name="e_fr_energy">    -70.19161049 </i>
    <i name="e_wo_entrp">    -70.19161049 </i>
    <i name="e_0_energy">    -70.19161049 </i>
   </energy>
  </scstep>
  <scstep>
   <time name="diag">    0.13    0.13</time>
   <time name="diis">    0.05    0.05</time>
   <time name="orth">    0.01    0.01</time>
   <time name="total">    0.25    0.25</time>
   <energy>
    <i name="e_fr_energy">    -70.19161564 </i>
    <i name="e_wo_entrp">    -70.19161564 </i>
    <i name="e_0_energy">    -70.19161564 </i>
   </energy>
  </scstep>
  <scstep>
   <time name="diag">    0.13    0.14</time>
   <time name="diis">    0.06    0.06</time>
   <time name="orth">    0.01    0.01</time>
   <time name="total">    0.26    0.26</time>
   <energy>
    <i name="e_fr_energy">    -70.19161643 </i>
    <i name="e_wo_entrp">    -70.19161643 </i>
    <i name="e_0_energy">    -70.19161643 </i>
   </energy>
  </scstep>
  <scstep>
   <time name="diag">    0.23    0.23</time>
   <time name="diis">    0.06    0.06</time>
   <time name="orth">    0.01    0.01</time>
   <time name="total">    0.36    0.37</time>
   <energy>
    <i name="e_fr_energy">    -70.19161533 </i>
    <i name="e_wo_entrp">    -70.19161533 </i>
    <i name="e_0_energy">    -70.19161533 </i>
   </energy>
  </scstep>
  <scstep>
   <time name="diag">    0.15    0.16</time>
   <time name="diis">    0.06    0.06</time>
   <time name="orth">    0.01    0.01</time>
   <time name="total">    0.30    0.30</time>
   <energy>
    <i name="e_fr_energy">    -70.19161569 </i>
    <i name="e_wo_entrp">    -70.19161569 </i>
    <i name="e_0_energy">    -70.19161569 </i>
   </energy>
  </scstep>
  <scstep>
   <time name="diag">    0.14    0.15</time>
   <time name="diis">    0.05    0.05</time>
   <time name="orth">    0.01    0.01</time>
   <time name="total">    0.26    0.27</time>
   <energy>
    <i name="e_fr_energy">    -70.19161563 </i>
    <i name="e_wo_entrp">    -70.19161563 </i>
    <i name="e_0_energy">    -70.19161563 </i>
   </energy>
  </scstep>
  <scstep>
   <time name="diag">    0.35    0.40</time>
   <time name="diis">    0.04    0.04</time>
   <time name="orth">    0.01    0.01</time>
   <time name="total">    0.45    0.51</time>
   <energy>
    <i name="e_fr_energy">    -70.19161566 </i>
    <i name="e_wo_entrp">    -70.19161566 </i>
    <i name="e_0_energy">    -70.19161566 </i>
   </energy>
  </scstep>
  <scstep>
   <time name="diag">    0.13    0.13</time>
   <time name="diis">    0.04    0.04</time>
   <time name="orth">    0.01    0.01</time>
   <time name="total">    0.23    0.23</time>
   <energy>
    <i name="e_fr_energy">    -70.19161564 </i>
    <i name="e_wo_entrp">    -70.19161564 </i>
    <i name="e_0_energy">    -70.19161564 </i>
   </energy>
  </scstep>
  <scstep>
   <time name="diag">    0.13    0.13</time>
   <time name="diis">    0.03    0.03</time>
   <time name="orth">    0.01    0.01</time>
   <time name="total">    0.23    0.23</time>
   <energy>
    <i name="e_fr_energy">    -70.19161566 </i>
    <i name="e_wo_entrp">    -70.19161566 </i>
    <i name="e_0_energy">    -70.19161566 </i>
   </energy>
  </scstep>
  <scstep>
   <time name="diag">    0.13    0.14</time>
   <time name="diis">    0.03    0.03</time>
   <time name="orth">    0.01    0.01</time>
   <time name="total">    0.22    0.22</time>
   <energy>
    <i name="alphaZ">     51.65870295 </i>
    <i name="ewald">  -2075.31059886 </i>
    <i name="hartreedc">   -588.47394086 </i>
    <i name="XCdc">     85.19124470 </i>
    <i name="pawpsdc">   6535.31604197 </i>
    <i name="pawaedc">  -6461.92039871 </i>
    <i name="eentropy">     -0.00000000 </i>
    <i name="bandstr">   -215.08186223 </i>
    <i name="atom">   2598.42919538 </i>
    <i name="e_fr_energy">    -70.19161567 </i>
    <i name="e_wo_entrp">    -70.19161567 </i>
    <i name="e_0_energy">    -70.19161567 </i>
   </energy>
  </scstep>
  <structure>
   <crystal>
    <varray name="basis" >
     <v>       7.72242870       0.00000000       0.00000000 </v>
     <v>       0.00000000       6.61043773       0.00000000 </v>
     <v>       0.00000000       0.00000000       6.23916208 </v>
    </varray>
    <i name="volume">    318.50070182 </i>
    <varray name="rec_basis" >
     <v>       0.12949294       0.00000000       0.00000000 </v>
     <v>       0.00000000       0.15127591       0.00000000 </v>
     <v>       0.00000000       0.00000000       0.16027793 </v>
    </varray>
   </crystal>
   <varray name="positions" >
    <v>       0.74973716       0.67021426       0.51531891 </v>
    <v>       0.25026284       0.67021426       0.51531891 </v>
    <v>       0.75026284       0.32978574       0.01531891 </v>
    <v>       0.24973716       0.32978574       0.01531891 </v>
    <v>       0.50000000       0.85525367       0.98586296 </v>
    <v>      -0.00000000       0.14474633       0.48586296 </v>
    <v>       0.50000000       0.18223364       0.49438168 </v>
    <v>      -0.00000000       0.81776636       0.99438168 </v>
    <v>       0.71896548       0.32838624       0.38692625 </v>
    <v>       0.28103452       0.32838624       0.38692625 </v>
    <v>       0.78103452       0.67161376       0.88692625 </v>
    <v>       0.21896548       0.67161376       0.88692625 </v>
    <v>       0.50000000       0.88577388       0.38650746 </v>
    <v>      -0.00000000       0.11422612       0.88650746 </v>
    <v>       0.50000000       0.19503352       0.82715758 </v>
    <v>      -0.00000000       0.80496648       0.32715758 </v>
   </varray>
  </structure>
  <varray name="forces" >
   <v>      -0.11180713       0.22440850      -0.34689211 </v>
   <v>       0.11180713       0.22440850      -0.34689211 </v>
   <v>       0.11180713      -0.22440850      -0.34689211 </v>
   <v>      -0.11180713      -0.22440850      -0.34689211 </v>
   <v>       0.00000000       0.09425455       0.02277303 </v>
   <v>       0.00000000      -0.09425455       0.02277303 </v>
   <v>       0.00000000      -0.38554930       0.30856913 </v>
   <v>       0.00000000       0.38554930       0.30856913 </v>
   <v>       0.01257534      -0.02652815       0.16503706 </v>
   <v>      -0.01257534      -0.02652815       0.16503706 </v>
   <v>      -0.01257534       0.02652815       0.16503706 </v>
   <v>       0.01257534       0.02652815       0.16503706 </v>
   <v>       0.00000000       0.18980406       0.18322117 </v>
   <v>       0.00000000      -0.18980406       0.18322117 </v>
   <v>       0.00000000      -0.06295774      -0.15085322 </v>
   <v>       0.00000000       0.06295774      -0.15085322 </v>
  </varray>
  <varray name="stress" >
   <v>      -0.03188435       0.00000000       0.00000000 </v>
   <v>       0.00000000      -4.09383669       0.00000000 </v>
   <v>       0.00000000       0.00000000       5.91141658 </v>
  </varray>
  <energy>
   <i name="e_fr_energy">    -70.19161567 </i>
   <i name="e_wo_entrp">    -70.19161567 </i>
   <i name="e_0_energy">    -70.19161567 </i>
  </energy>
  <time name="totalsc">    4.93    5.03</time>
 </calculation>
 <calculation>
  <scstep>
   <time name="dav">    0.42    0.42</time>
   <time name="total">    0.47    0.48</time>
   <energy>
    <i name="alphaZ">     51.35356237 </i>
    <i name="ewald">  -2069.31769419 </i>
    <i name="hartreedc">   -589.03908612 </i>
    <i name="XCdc">     84.95916409 </i>
    <i name="pawpsdc">   6535.31307508 </i>
    <i name="pawaedc">  -6461.91743245 </i>
    <i name="eentropy">     -0.00000000 </i>
    <i name="bandstr">   -220.03622891 </i>
    <i name="atom">   2598.42919538 </i>
    <i name="e_fr_energy">    -70.25544475 </i>
    <i name="e_wo_entrp">    -70.25544475 </i>
    <i name="e_0_energy">    -70.25544475 </i>
   </energy>
  </scstep>
  <scstep>
   <time name="diag">    0.14    0.14</time>
   <time name="diis">    0.05    0.05</time>
   <time name="orth">    0.01    0.01</time>
   <time name="total">    0.25    0.25</time>
   <energy>
    <i name="e_fr_energy">    -70.25179558 </i>
    <i name="e_wo_entrp">    -70.25179558 </i>
    <i name="e_0_energy">    -70.25179558 </i>
   </energy>
  </scstep>
  <scstep>
   <time name="diag">    0.14    0.14</time>
   <time name="diis">    0.12    0.13</time>
   <time name="orth">    0.02    0.02</time>
   <time name="total">    0.33    0.34</time>
   <energy>
    <i name="e_fr_energy">    -70.24948815 </i>
    <i name="e_wo_entrp">    -70.24948815 </i>
    <i name="e_0_energy">    -70.24948815 </i>
   </energy>
  </scstep>
  <scstep>
   <time name="diag">    0.14    0.14</time>
   <time name="diis">    0.05    0.05</time>
   <time name="orth">    0.01    0.01</time>
   <time name="total">    0.25    0.25</time>
   <energy>
    <i name="e_fr_energy">    -70.24900574 </i>
    <i name="e_wo_entrp">    -70.24900574 </i>
    <i name="e_0_energy">    -70.24900574 </i>
   </energy>
  </scstep>
  <scstep>
   <time name="diag">    0.16    0.16</time>
   <time name="diis">    0.79    0.79</time>
   <time name="orth">    0.01    0.01</time>
   <time name="total">    1.01    1.01</time>
   <energy>
    <i name="e_fr_energy">    -70.24898717 </i>
    <i name="e_wo_entrp">    -70.24898717 </i>
    <i name="e_0_energy">    -70.24898717 </i>
   </energy>
  </scstep>
  <scstep>
   <time name="diag">    0.14    0.14</time>
   <time name="diis">    0.05    0.05</time>
   <time name="orth">    0.01    0.01</time>
   <time name="total">    0.26    0.28</time>
   <energy>
    <i name="e_fr_energy">    -70.24900615 </i>
    <i name="e_wo_entrp">    -70.24900615 </i>
    <i name="e_0_energy">    -70.24900615 </i>
   </energy>
  </scstep>
  <scstep>
   <time name="diag">    0.13    0.13</time>
   <time name="diis">    0.06    0.06</time>
   <time name="orth">    0.01    0.01</time>
   <time name="total">    0.26    0.26</time>
   <energy>
    <i name="e_fr_energy">    -70.24901147 </i>
    <i name="e_wo_entrp">    -70.24901147 </i>
    <i name="e_0_energy">    -70.24901147 </i>
   </energy>
  </scstep>
  <scstep>
   <time name="diag">    0.14    0.14</time>
   <time name="diis">    0.06    0.11</time>
   <time name="orth">    0.12    0.18</time>
   <time name="total">    0.37    0.48</time>
   <energy>
    <i name="e_fr_energy">    -70.24901157 </i>
    <i name="e_wo_entrp">    -70.24901157 </i>
    <i name="e_0_energy">    -70.24901157 </i>
   </energy>
  </scstep>
  <scstep>
   <time name="diag">    0.13    0.14</time>
   <time name="diis">    0.06    0.06</time>
   <time name="orth">    0.01    0.01</time>
   <time name="total">    0.26    0.26</time>
   <energy>
    <i name="e_fr_energy">    -70.24901252 </i>
    <i name="e_wo_entrp">    -70.24901252 </i>
    <i name="e_0_energy">    -70.24901252 </i>
   </energy>
  </scstep>
  <scstep>
   <time name="diag">    0.13    0.13</time>
   <time name="diis">    0.05    0.05</time>
   <time name="orth">    0.01    0.01</time>
   <time name="total">    0.25    0.25</time>
   <energy>
    <i name="e_fr_energy">    -70.24901259 </i>
    <i name="e_wo_entrp">    -70.24901259 </i>
    <i name="e_0_energy">    -70.24901259 </i>
   </energy>
  </scstep>
  <scstep>
   <time name="diag">    0.14    0.14</time>
   <time name="diis">    0.05    0.05</time>
   <time name="orth">    0.01    0.01</time>
   <time name="total">    0.24    0.24</time>
   <energy>
    <i name="alphaZ">     51.35356237 </i>
    <i name="ewald">  -2069.31769419 </i>
    <i name="hartreedc">   -592.15019976 </i>
    <i name="XCdc">     85.10191858 </i>
    <i name="pawpsdc">   6507.17976287 </i>
    <i name="pawaedc">  -6433.76610380 </i>
    <i name="eentropy">     -0.00000000 </i>
    <i name="bandstr">   -217.07945405 </i>
    <i name="atom">   2598.42919538 </i>
    <i name="e_fr_energy">    -70.24901260 </i>
    <i name="e_wo_entrp">    -70.24901260 </i>
    <i name="e_0_energy">    -70.24901260 </i>
   </energy>
  </scstep>
  <structure>
   <crystal>
    <varray name="basis" >
     <v>       7.72462289       0.00000000       0.00000000 </v>
     <v>       0.00000000       6.60791052       0.00000000 </v>
     <v>       0.00000000       0.00000000       6.27685181 </v>
    </varray>
    <i name="volume">    320.39321883 </i>
    <varray name="rec_basis" >
     <v>       0.12945616       0.00000000       0.00000000 </v>
     <v>       0.00000000       0.15133377       0.00000000 </v>
     <v>       0.00000000       0.00000000       0.15931553 </v>
    </varray>
   </crystal>
   <varray name="positions" >
    <v>       0.74901319       0.67191330       0.51241837 </v>
    <v>       0.25098681       0.67191330       0.51241837 </v>
    <v>       0.75098681       0.32808670       0.01241837 </v>
    <v>       0.24901319       0.32808670       0.01241837 </v>
    <v>       0.50000000       0.85593277       0.98600447 </v>
    <v>      -0.00000000       0.14406723       0.48600447 </v>
    <v>       0.50000000       0.18027276       0.49662442 </v>
    <v>      -0.00000000       0.81972724       0.99662442 </v>
    <v>       0.71911471       0.32822050       0.38830594 </v>
    <v>       0.28088529       0.32822050       0.38830594 </v>
    <v>       0.78088529       0.67177950       0.88830594 </v>
    <v>       0.21911471       0.67177950       0.88830594 </v>
    <v>       0.50000000       0.88610445       0.38758377 </v>
    <v>      -0.00000000       0.11389555       0.88758377 </v>
    <v>       0.50000000       0.19459650       0.82673874 </v>
    <v>      -0.00000000       0.80540350       0.32673874 </v>
   </varray>
  </structure>
  <varray name="forces" >
   <v>      -0.09607991       0.19078793      -0.22250809 </v>
   <v>       0.09607991       0.19078793      -0.22250809 </v>
   <v>       0.09607991      -0.19078793      -0.22250809 </v>
   <v>      -0.09607991      -0.19078793      -0.22250809 </v>
   <v>       0.00000000       0.06581250       0.03372989 </v>
   <v>       0.00000000      -0.06581250       0.03372989 </v>
   <v>       0.00000000      -0.06128826       0.13967850 </v>
   <v>       0.00000000       0.06128826       0.13967850 </v>
   <v>      -0.06077255      -0.10095687       0.12109414 </v>
   <v>       0.06077255      -0.10095687       0.12109414 </v>
   <v>       0.06077255       0.10095687       0.12109414 </v>
   <v>      -0.06077255       0.10095687       0.12109414 </v>
   <v>       0.00000000       0.05938295       0.13189743 </v>
   <v>       0.00000000      -0.05938295       0.13189743 </v>
   <v>       0.00000000      -0.07338284      -0.10247791 </v>
   <v>       0.00000000       0.07338284      -0.10247791 </v>
  </varray>
  <varray name="stress" >
   <v>      -3.33004801       0.00000000       0.00000000 </v>
   <v>       0.00000000      -2.86939168       0.00000000 </v>
   <v>       0.00000000       0.00000000      -0.29742091 </v>
  </varray>
  <energy>
   <i name="e_fr_energy">    -70.24901260 </i>
   <i name="e_wo_entrp">    -70.24901260 </i>
   <i name="e_0_energy">    -70.24901260 </i>
  </energy>
  <time name="totalsc">    4.17    4.33</time>
 </calculation>
 <calculation>
  <scstep>
   <time name="dav">    0.42    0.42</time>
   <time name="total">    0.47    0.47</time>
   <energy>
    <i name="alphaZ">     51.00907419 </i>
    <i name="ewald">  -2062.29231352 </i>
    <i name="hartreedc">   -592.88768317 </i>
    <i name="XCdc">     84.83999042 </i>
    <i name="pawpsdc">   6507.25459631 </i>
    <i name="pawaedc">  -6433.84094182 </i>
    <i name="eentropy">     -0.00000000 </i>
    <i name="bandstr">   -222.79485378 </i>
    <i name="atom">   2598.42919538 </i>
    <i name="e_fr_energy">    -70.28293599 </i>
    <i name="e_wo_entrp">    -70.28293599 </i>
    <i name="e_0_energy">    -70.28293599 </i>
   </energy>
  </scstep>
  <scstep>
   <time name="diag">    0.13    0.13</time>
   <time name="diis">    0.05    0.05</time>
   <time name="orth">    0.01    0.01</time>
   <time name="total">    0.25    0.25</time>
   <energy>
    <i name="e_fr_energy">    -70.27814246 </i>
    <i name="e_wo_entrp">    -70.27814246 </i>
    <i name="e_0_energy">    -70.27814246 </i>
   </energy>
  </scstep>
  <scstep>
   <time name="diag">    0.14    0.14</time>
   <time name="diis">    0.05    0.05</time>
   <time name="orth">    0.01    0.01</time>
   <time name="total">    0.25    0.25</time>
   <energy>
    <i name="e_fr_energy">    -70.27516259 </i>
    <i name="e_wo_entrp">    -70.27516259 </i>
    <i name="e_0_energy">    -70.27516259 </i>
   </energy>
  </scstep>
  <scstep>
   <time name="diag">    0.20    0.20</time>
   <time name="diis">    0.05    0.05</time>
   <time name="orth">    0.01    0.01</time>
   <time name="total">    0.35    0.36</time>
   <energy>
    <i name="e_fr_energy">    -70.27453550 </i>
    <i name="e_wo_entrp">    -70.27453550 </i>
    <i name="e_0_energy">    -70.27453550 </i>
   </energy>
  </scstep>
  <scstep>
   <time name="diag">    0.14    0.14</time>
   <time name="diis">    0.05    0.05</time>
   <time name="orth">    0.01    0.01</time>
   <time name="total">    0.25    0.25</time>
   <energy>
    <i name="e_fr_energy">    -70.27451414 </i>
    <i name="e_wo_entrp">    -70.27451414 </i>
    <i name="e_0_energy">    -70.27451414 </i>
   </energy>
  </scstep>
  <scstep>
   <time name="diag">    0.14    0.14</time>
   <time name="diis">    0.05    0.05</time>
   <time name="orth">    0.01    0.01</time>
   <time name="total">    0.25    0.25</time>
   <energy>
    <i name="e_fr_energy">    -70.27453851 </i>
    <i name="e_wo_entrp">    -70.27453851 </i>
    <i name="e_0_energy">    -70.27453851 </i>
   </energy>
  </scstep>
  <scstep>
   <time name="diag">    0.13    0.14</time>
   <time name="diis">    0.06    0.06</time>
   <time name="orth">    0.01    0.01</time>
   <time name="total">    0.26    0.26</time>
   <energy>
    <i name="e_fr_energy">    -70.27454599 </i>
    <i name="e_wo_entrp">    -70.27454599 </i>
    <i name="e_0_energy">    -70.27454599 </i>
   </energy>
  </scstep>
  <scstep>
   <time name="diag">    0.14    0.14</time>
   <time name="diis">    0.06    0.06</time>
   <time name="orth">    0.01    0.01</time>
   <time name="total">    0.26    0.26</time>
   <energy>
    <i name="e_fr_energy">    -70.27454608 </i>
    <i name="e_wo_entrp">    -70.27454608 </i>
    <i name="e_0_energy">    -70.27454608 </i>
   </energy>
  </scstep>
  <scstep>
   <time name="diag">    0.13    0.13</time>
   <time name="diis">    0.06    0.06</time>
   <time name="orth">    0.01    0.01</time>
   <time name="total">    0.25    0.25</time>
   <energy>
    <i name="e_fr_energy">    -70.27454715 </i>
    <i name="e_wo_entrp">    -70.27454715 </i>
    <i name="e_0_energy">    -70.27454715 </i>
   </energy>
  </scstep>
  <scstep>
   <time name="diag">    0.14    0.14</time>
   <time name="diis">    0.05    0.05</time>
   <time name="orth">    0.01    0.01</time>
   <time name="total">    0.25    0.25</time>
   <energy>
    <i name="e_fr_energy">    -70.27454729 </i>
    <i name="e_wo_entrp">    -70.27454729 </i>
    <i name="e_0_energy">    -70.27454729 </i>
   </energy>
  </scstep>
  <scstep>
   <time name="diag">    0.13    0.13</time>
   <time name="diis">    0.05    0.05</time>
   <time name="orth">    0.01    0.01</time>
   <time name="total">    0.25    0.25</time>
   <energy>
    <i name="e_fr_energy">    -70.27454726 </i>
    <i name="e_wo_entrp">    -70.27454726 </i>
    <i name="e_0_energy">    -70.27454726 </i>
   </energy>
  </scstep>
  <scstep>
   <time name="diag">    0.30    0.36</time>
   <time name="diis">    0.04    0.04</time>
   <time name="orth">    0.01    0.01</time>
   <time name="total">    0.43    0.49</time>
   <energy>
    <i name="e_fr_energy">    -70.27454730 </i>
    <i name="e_wo_entrp">    -70.27454730 </i>
    <i name="e_0_energy">    -70.27454730 </i>
   </energy>
  </scstep>
  <scstep>
   <time name="diag">    0.14    0.14</time>
   <time name="diis">    0.04    0.04</time>
   <time name="orth">    0.01    0.01</time>
   <time name="total">    0.24    0.24</time>
   <energy>
    <i name="e_fr_energy">    -70.27454732 </i>
    <i name="e_wo_entrp">    -70.27454732 </i>
    <i name="e_0_energy">    -70.27454732 </i>
   </energy>
  </scstep>
  <scstep>
   <time name="diag">    0.13    0.14</time>
   <time name="diis">    0.04    0.04</time>
   <time name="orth">    0.01    0.01</time>
   <time name="total">    0.23    0.23</time>
   <energy>
    <i name="alphaZ">     51.00907419 </i>
    <i name="ewald">  -2062.29231352 </i>
    <i name="hartreedc">   -596.48143699 </i>
    <i name="XCdc">     85.00607792 </i>
    <i name="pawpsdc">   6478.89955715 </i>
    <i name="pawaedc">  -6405.46831812 </i>
    <i name="eentropy">     -0.00000000 </i>
    <i name="bandstr">   -219.37638332 </i>
    <i name="atom">   2598.42919538 </i>
    <i name="e_fr_energy">    -70.27454732 </i>
    <i name="e_wo_entrp">    -70.27454732 </i>
    <i name="e_0_energy">    -70.27454732 </i>
   </energy>
  </scstep>
  <structure>
   <crystal>
    <varray name="basis" >
     <v>       7.72713220       0.00000000       0.00000000 </v>
     <v>       0.00000000       6.60502036       0.00000000 </v>
     <v>       0.00000000       0.00000000       6.31995443 </v>
    </varray>
    <i name="volume">    322.55698438 </i>
    <varray name="rec_basis" >
     <v>       0.12941412       0.00000000       0.00000000 </v>
     <v>       0.00000000       0.15139999       0.00000000 </v>
     <v>       0.00000000       0.00000000       0.15822899 </v>
    </varray>
   </crystal>
   <varray name="positions" >
    <v>       0.74818547       0.67385709       0.50912117 </v>
    <v>       0.25181453       0.67385709       0.50912117 </v>
    <v>       0.75181453       0.32614291       0.00912117 </v>
    <v>       0.24818547       0.32614291       0.00912117 </v>
    <v>       0.50000000       0.85670968       0.98616533 </v>
    <v>       0.00000000       0.14329032       0.48616533 </v>
    <v>       0.50000000       0.17802940       0.49917385 </v>
    <v>       0.00000000       0.82197060       0.99917385 </v>
    <v>       0.71928533       0.32803089       0.38987429 </v>
    <v>       0.28071467       0.32803089       0.38987429 </v>
    <v>       0.78071467       0.67196911       0.88987429 </v>
    <v>       0.21928533       0.67196911       0.88987429 </v>
    <v>       0.50000000       0.88648264       0.38880726 </v>
    <v>       0.00000000       0.11351736       0.88880726 </v>
    <v>       0.50000000       0.19409653       0.82626262 </v>
    <v>       0.00000000       0.80590347       0.32626262 </v>
   </varray>
  </structure>
  <varray name="forces" >
   <v>      -0.07823664       0.14840087      -0.10039691 </v>
   <v>       0.07823664       0.14840087      -0.10039691 </v>
   <v>       0.07823664      -0.14840087      -0.10039691 </v>
   <v>      -0.07823664      -0.14840087      -0.10039691 </v>
   <v>       0.00000000       0.03204820       0.04293376 </v>
   <v>       0.00000000      -0.03204820       0.04293376 </v>
   <v>       0.00000000       0.29781570      -0.01761201 </v>
   <v>       0.00000000      -0.29781570      -0.01761201 </v>
   <v>      -0.14303922      -0.17844905       0.08076375 </v>
   <v>       0.14303922      -0.17844905       0.08076375 </v>
   <v>       0.14303922       0.17844905       0.08076375 </v>
   <v>      -0.14303922       0.17844905       0.08076375 </v>
   <v>       0.00000000      -0.08180737       0.07214798 </v>
   <v>       0.00000000       0.08180737       0.07214798 </v>
   <v>       0.00000000      -0.08628575      -0.05820341 </v>
   <v>       0.00000000       0.08628575      -0.05820341 </v>
  </varray>
  <varray name="stress" >
   <v>      -6.76617580       0.00000000       0.00000000 </v>
   <v>       0.00000000      -1.21861901       0.00000000 </v>
   <v>       0.00000000       0.00000000      -6.29851244 </v>
  </varray>
  <energy>
   <i name="e_fr_energy">    -70.27454732 </i>
   <i name="e_wo_entrp">    -70.27454732 </i>
   <i name="e_0_energy">    -70.27454732 </i>
  </energy>
  <time name="totalsc">    4.21    4.29</time>
 </calculation>
 <calculation>
  <scstep>
   <time name="dav">    0.42    0.43</time>
   <time name="total">    0.47    0.48</time>
   <energy>
    <i name="alphaZ">     51.34703492 </i>
    <i name="ewald">  -2060.56709953 </i>
    <i name="hartreedc">   -603.03821544 </i>
    <i name="XCdc">     85.42284555 </i>
    <i name="pawpsdc">   6478.91020814 </i>
    <i name="pawaedc">  -6405.47896562 </i>
    <i name="eentropy">     -0.00000000 </i>
    <i name="bandstr">   -215.32238548 </i>
    <i name="atom">   2598.42919538 </i>
    <i name="e_fr_energy">    -70.29738208 </i>
    <i name="e_wo_entrp">    -70.29738208 </i>
    <i name="e_0_energy">    -70.29738208 </i>
   </energy>
  </scstep>
  <scstep>
   <time name="diag">    0.13    0.13</time>
   <time name="diis">    0.05    0.05</time>
   <time name="orth">    0.01    0.01</time>
   <time name="total">    0.25    0.25</time>
   <energy>
    <i name="e_fr_energy">    -70.30019997 </i>
    <i name="e_wo_entrp">    -70.30019997 </i>
    <i name="e_0_energy">    -70.30019997 </i>
   </energy>
  </scstep>
  <scstep>
   <time name="diag">    0.14    0.14</time>
   <time name="diis">    0.05    0.05</time>
   <time name="orth">    0.01    0.01</time>
   <time name="total">    0.25    0.26</time>
   <energy>
    <i name="e_fr_energy">    -70.29897793 </i>
    <i name="e_wo_entrp">    -70.29897793 </i>
    <i name="e_0_energy">    -70.29897793 </i>
   </energy>
  </scstep>
  <scstep>
   <time name="diag">    0.19    0.25</time>
   <time name="diis">    0.05    0.05</time>
   <time name="orth">    0.01    0.01</time>
   <time name="total">    0.31    0.36</time>
   <energy>
    <i name="e_fr_energy">    -70.29872744 </i>
    <i name="e_wo_entrp">    -70.29872744 </i>
    <i name="e_0_energy">    -70.29872744 </i>
   </energy>
  </scstep>
  <scstep>
   <time name="diag">    0.13    0.14</time>
   <time name="diis">    0.05    0.05</time>
   <time name="orth">    0.01    0.01</time>
   <time name="total">    0.25    0.25</time>
   <energy>
    <i name="e_fr_energy">    -70.29877665 </i>
    <i name="e_wo_entrp">    -70.29877665 </i>
    <i name="e_0_energy">    -70.29877665 </i>
   </energy>
  </scstep>
  <scstep>
   <time name="diag">    0.13    0.13</time>
   <time name="diis">    0.05    0.05</time>
   <time name="orth">    0.01    0.01</time>
   <time name="total">    0.25    0.25</time>
   <energy>
    <i name="e_fr_energy">    -70.29879799 </i>
    <i name="e_wo_entrp">    -70.29879799 </i>
    <i name="e_0_energy">    -70.29879799 </i>
   </energy>
  </scstep>
  <scstep>
   <time name="diag">    0.13    0.13</time>
   <time name="diis">    0.05    0.05</time>
   <time name="orth">    0.01    0.01</time>
   <time name="total">    0.25    0.25</time>
   <energy>
    <i name="e_fr_energy">    -70.29880128 </i>
    <i name="e_wo_entrp">    -70.29880128 </i>
    <i name="e_0_energy">    -70.29880128 </i>
   </energy>
  </scstep>
  <scstep>
   <time name="diag">    0.17    0.17</time>
   <time name="diis">    0.08    0.08</time>
   <time name="orth">    0.01    0.01</time>
   <time name="total">    0.32    0.32</time>
   <energy>
    <i name="e_fr_energy">    -70.29880229 </i>
    <i name="e_wo_entrp">    -70.29880229 </i>
    <i name="e_0_energy">    -70.29880229 </i>
   </energy>
  </scstep>
  <scstep>
   <time name="diag">    0.17    0.17</time>
   <time name="diis">    0.06    0.06</time>
   <time name="orth">    0.01    0.01</time>
   <time name="total">    0.31    0.31</time>
   <energy>
    <i name="e_fr_energy">    -70.29880242 </i>
    <i name="e_wo_entrp">    -70.29880242 </i>
    <i name="e_0_energy">    -70.29880242 </i>
   </energy>
  </scstep>
  <scstep>
   <time name="diag">    0.14    0.14</time>
   <time name="diis">    0.06    0.06</time>
   <time name="orth">    0.01    0.01</time>
   <time name="total">    0.27    0.28</time>
   <energy>
    <i name="e_fr_energy">    -70.29880244 </i>
    <i name="e_wo_entrp">    -70.29880244 </i>
    <i name="e_0_energy">    -70.29880244 </i>
   </energy>
  </scstep>
  <scstep>
   <time name="diag">    0.14    0.14</time>
   <time name="diis">    0.08    0.13</time>
   <time name="orth">    0.12    0.18</time>
   <time name="total">    0.39    0.50</time>
   <energy>
    <i name="e_fr_energy">    -70.29880207 </i>
    <i name="e_wo_entrp">    -70.29880207 </i>
    <i name="e_0_energy">    -70.29880207 </i>
   </energy>
  </scstep>
  <scstep>
   <time name="diag">    0.14    0.14</time>
   <time name="diis">    0.05    0.05</time>
   <time name="orth">    0.01    0.01</time>
   <time name="total">    0.25    0.25</time>
   <energy>
[...]
       <r>   -2.7712    1.0000 </r>
       <r>   -2.5231    1.0000 </r>
       <r>   -2.5231    1.0000 </r>
       <r>   -0.5844    1.0000 </r>
       <r>   -0.5844    1.0000 </r>
       <r>   -0.5453    1.0000 </r>
       <r>   -0.5453    1.0000 </r>
       <r>   -0.1871    1.0000 </r>
       <r>   -0.1871    1.0000 </r>
       <r>    0.2865    1.0000 </r>
       <r>    0.2865    1.0000 </r>
       <r>    0.4915    1.0000 </r>
       <r>    0.4915    1.0000 </r>
       <r>    1.1229    1.0000 </r>
       <r>    1.1229    1.0000 </r>
       <r>    1.1389    1.0000 </r>
       <r>    1.1389    1.0000 </r>
       <r>    1.3207    1.0000 </r>
       <r>    1.3207    1.0000 </r>
       <r>    4.4170    0.0000 </r>
       <r>    4.4170    0.0000 </r>
       <r>    5.7486    0.0000 </r>
       <r>    5.7486    0.0000 </r>
       <r>    6.0098    0.0000 </r>
       <r>    6.0098    0.0000 </r>
       <r>    6.1234    0.0000 </r>
       <r>    6.1234    0.0000 </r>
       <r>    7.6411    0.0000 </r>
       <r>    7.6411    0.0000 </r>
       <r>    8.1315    0.0000 </r>
       <r>    8.1315    0.0000 </r>
       <r>    8.6726    0.0000 </r>
       <r>    8.6726    0.0000 </r>
       <r>    9.1000    0.0000 </r>
       <r>    9.1112    0.0000 </r>
      </set>
      <set comment="kpoint 18">
       <r>  -12.9841    1.0000 </r>
       <r>  -12.9841    1.0000 </r>
       <r>  -10.1860    1.0000 </r>
       <r>  -10.1860    1.0000 </r>
       <r>  -10.1002    1.0000 </r>
       <r>  -10.1002    1.0000 </r>
       <r>  -10.0877    1.0000 </r>
       <r>  -10.0877    1.0000 </r>
       <r>   -5.8600    1.0000 </r>
       <r>   -5.8600    1.0000 </r>
       <r>   -2.8620    1.0000 </r>
       <r>   -2.8620    1.0000 </r>
       <r>   -2.7023    1.0000 </r>
       <r>   -2.7023    1.0000 </r>
       <r>   -2.4996    1.0000 </r>
       <r>   -2.4996    1.0000 </r>
       <r>   -0.7316    1.0000 </r>
       <r>   -0.7316    1.0000 </r>
       <r>   -0.5685    1.0000 </r>
       <r>   -0.5685    1.0000 </r>
       <r>   -0.0865    1.0000 </r>
       <r>   -0.0865    1.0000 </r>
       <r>    0.2657    1.0000 </r>
       <r>    0.2657    1.0000 </r>
       <r>    0.4480    1.0000 </r>
       <r>    0.4480    1.0000 </r>
       <r>    1.0006    1.0000 </r>
       <r>    1.0006    1.0000 </r>
       <r>    1.1905    1.0000 </r>
       <r>    1.1905    1.0000 </r>
       <r>    1.2939    1.0000 </r>
       <r>    1.2939    1.0000 </r>
       <r>    4.6977    0.0000 </r>
       <r>    4.6977    0.0000 </r>
       <r>    5.7798    0.0000 </r>
       <r>    5.7798    0.0000 </r>
       <r>    6.1704    0.0000 </r>
       <r>    6.1704    0.0000 </r>
       <r>    6.4047    0.0000 </r>
       <r>    6.4047    0.0000 </r>
       <r>    7.4441    0.0000 </r>
       <r>    7.4441    0.0000 </r>
       <r>    8.2086    0.0000 </r>
       <r>    8.2086    0.0000 </r>
       <r>    8.5346    0.0000 </r>
       <r>    8.5346    0.0000 </r>
       <r>    8.8703    0.0000 </r>
       <r>    8.8703    0.0000 </r>
      </set>
     </set>
    </set>
   </array>
  </eigenvalues>
  <separator name="orbital magnetization" >
   <v name="MAGDIPOLOUT">      0.00000000      0.00000000      0.00000000</v>
  </separator>
  <dos>
   <i name="efermi">      1.75652437 </i>
   <total>
    <array>
     <dimension dim="1">gridpoints</dimension>
     <dimension dim="2">spin</dimension>
     <field>energy</field>
     <field>total</field>
     <field>integrated</field>
     <set>
      <set comment="spin 1">
       <r>   -14.2077     0.0000     0.0000 </r>
       <r>   -14.1259     0.0000     0.0000 </r>
       <r>   -14.0441     0.0000     0.0000 </r>
       <r>   -13.9622     0.0000     0.0000 </r>
       <r>   -13.8804     0.0000     0.0000 </r>
       <r>   -13.7985     0.0000     0.0000 </r>
       <r>   -13.7167     0.0000     0.0000 </r>
       <r>   -13.6348     0.0000     0.0000 </r>
       <r>   -13.5530     0.0000     0.0000 </r>
       <r>   -13.4712     0.0000     0.0000 </r>
       <r>   -13.3893     0.0000     0.0000 </r>
       <r>   -13.3075     0.0000     0.0000 </r>
       <r>   -13.2256     0.0000     0.0000 </r>
       <r>   -13.1438     0.0884     0.0072 </r>
       <r>   -13.0620     5.3912     0.4485 </r>
       <r>   -12.9801    29.6719     2.8769 </r>
       <r>   -12.8983    13.5219     3.9835 </r>
       <r>   -12.8164     0.2012     4.0000 </r>
       <r>   -12.7346     0.0000     4.0000 </r>
       <r>   -12.6527     0.0000     4.0000 </r>
       <r>   -12.5709     0.0000     4.0000 </r>
       <r>   -12.4891     0.0000     4.0000 </r>
       <r>   -12.4072     0.0000     4.0000 </r>
       <r>   -12.3254     0.0000     4.0000 </r>
       <r>   -12.2435     0.0000     4.0000 </r>
       <r>   -12.1617     0.0000     4.0000 </r>
       <r>   -12.0798     0.0000     4.0000 </r>
       <r>   -11.9980     0.0000     4.0000 </r>
       <r>   -11.9162     0.0000     4.0000 </r>
       <r>   -11.8343     0.0000     4.0000 </r>
       <r>   -11.7525     0.0000     4.0000 </r>
       <r>   -11.6706     0.0000     4.0000 </r>
       <r>   -11.5888     0.0000     4.0000 </r>
       <r>   -11.5070     0.0000     4.0000 </r>
       <r>   -11.4251     0.0000     4.0000 </r>
       <r>   -11.3433     0.0000     4.0000 </r>
       <r>   -11.2614     0.0000     4.0000 </r>
       <r>   -11.1796     0.0000     4.0000 </r>
       <r>   -11.0977     0.0000     4.0000 </r>
       <r>   -11.0159     0.0000     4.0000 </r>
       <r>   -10.9341     0.0000     4.0000 </r>
       <r>   -10.8522     0.0000     4.0000 </r>
       <r>   -10.7704     0.0000     4.0000 </r>
       <r>   -10.6885     0.0000     4.0000 </r>
       <r>   -10.6067     0.0000     4.0000 </r>
       <r>   -10.5249     0.0000     4.0000 </r>
       <r>   -10.4430     0.0000     4.0000 </r>
       <r>   -10.3612     0.0006     4.0000 </r>
       <r>   -10.2793     0.6341     4.0519 </r>
       <r>   -10.1975    16.7777     5.4251 </r>
       <r>   -10.1156    37.6837     8.5092 </r>
       <r>   -10.0338    55.2820    13.0335 </r>
       <r>    -9.9520    33.8039    15.8001 </r>
       <r>    -9.8701     2.4362    15.9995 </r>
       <r>    -9.7883     0.0062    16.0000 </r>
       <r>    -9.7064     0.0000    16.0000 </r>
       <r>    -9.6246     0.0000    16.0000 </r>
       <r>    -9.5428     0.0000    16.0000 </r>
       <r>    -9.4609     0.0000    16.0000 </r>
       <r>    -9.3791     0.0000    16.0000 </r>
       <r>    -9.2972     0.0000    16.0000 </r>
       <r>    -9.2154     0.0000    16.0000 </r>
       <r>    -9.1335     0.0000    16.0000 </r>
       <r>    -9.0517     0.0000    16.0000 </r>
       <r>    -8.9699     0.0000    16.0000 </r>
       <r>    -8.8880     0.0000    16.0000 </r>
       <r>    -8.8062     0.0000    16.0000 </r>
       <r>    -8.7243     0.0000    16.0000 </r>
       <r>    -8.6425     0.0000    16.0000 </r>
       <r>    -8.5607     0.0000    16.0000 </r>
       <r>    -8.4788     0.0000    16.0000 </r>
       <r>    -8.3970     0.0000    16.0000 </r>
       <r>    -8.3151     0.0000    16.0000 </r>
       <r>    -8.2333     0.0000    16.0000 </r>
       <r>    -8.1514     0.0000    16.0000 </r>
       <r>    -8.0696     0.0000    16.0000 </r>
       <r>    -7.9878     0.0000    16.0000 </r>
       <r>    -7.9059     0.0000    16.0000 </r>
       <r>    -7.8241     0.0000    16.0000 </r>
       <r>    -7.7422     0.0000    16.0000 </r>
       <r>    -7.6604     0.0000    16.0000 </r>
       <r>    -7.5786     0.0000    16.0000 </r>
       <r>    -7.4967     0.0000    16.0000 </r>
       <r>    -7.4149     0.0000    16.0000 </r>
       <r>    -7.3330     0.0000    16.0000 </r>
       <r>    -7.2512     0.0000    16.0000 </r>
       <r>    -7.1693     0.0000    16.0000 </r>
       <r>    -7.0875     0.0000    16.0000 </r>
       <r>    -7.0057     0.0000    16.0000 </r>
       <r>    -6.9238     0.0000    16.0000 </r>
       <r>    -6.8420     0.0000    16.0000 </r>
       <r>    -6.7601     0.0000    16.0000 </r>
       <r>    -6.6783     0.0000    16.0000 </r>
       <r>    -6.5965     0.0000    16.0000 </r>
       <r>    -6.5146     0.0000    16.0000 </r>
       <r>    -6.4328     0.0000    16.0000 </r>
       <r>    -6.3509     0.0078    16.0006 </r>
       <r>    -6.2691     0.2878    16.0242 </r>
       <r>    -6.1872     1.0846    16.1130 </r>
       <r>    -6.1054     3.2756    16.3810 </r>
       <r>    -6.0236     5.9264    16.8661 </r>
       <r>    -5.9417    10.8367    17.7530 </r>
       <r>    -5.8599    19.9746    19.3877 </r>
       <r>    -5.7780     7.1909    19.9762 </r>
       <r>    -5.6962     0.2899    20.0000 </r>
       <r>    -5.6143     0.0005    20.0000 </r>
       <r>    -5.5325     0.0000    20.0000 </r>
       <r>    -5.4507     0.0000    20.0000 </r>
       <r>    -5.3688     0.0000    20.0000 </r>
       <r>    -5.2870     0.0000    20.0000 </r>
       <r>    -5.2051     0.0000    20.0000 </r>
       <r>    -5.1233     0.0000    20.0000 </r>
       <r>    -5.0415     0.0000    20.0000 </r>
       <r>    -4.9596     0.0000    20.0000 </r>
       <r>    -4.8778     0.0000    20.0000 </r>
       <r>    -4.7959     0.0000    20.0000 </r>
       <r>    -4.7141     0.0000    20.0000 </r>
       <r>    -4.6322     0.0000    20.0000 </r>
       <r>    -4.5504     0.0000    20.0000 </r>
       <r>    -4.4686     0.0000    20.0000 </r>
       <r>    -4.3867     0.0000    20.0000 </r>
       <r>    -4.3049     0.0000    20.0000 </r>
       <r>    -4.2230     0.0000    20.0000 </r>
       <r>    -4.1412     0.0000    20.0000 </r>
       <r>    -4.0594     0.0000    20.0000 </r>
       <r>    -3.9775     0.0000    20.0000 </r>
       <r>    -3.8957     0.0000    20.0000 </r>
       <r>    -3.8138     0.0000    20.0000 </r>
       <r>    -3.7320     0.0000    20.0000 </r>
       <r>    -3.6501     0.0000    20.0000 </r>
       <r>    -3.5683     0.0000    20.0000 </r>
       <r>    -3.4865     0.0000    20.0000 </r>
       <r>    -3.4046     0.0000    20.0000 </r>
       <r>    -3.3228     0.0000    20.0000 </r>
       <r>    -3.2409     0.0004    20.0000 </r>
       <r>    -3.1591     0.3473    20.0285 </r>
       <r>    -3.0773     5.3574    20.4669 </r>
       <r>    -2.9954     8.3766    21.1525 </r>
       <r>    -2.9136    17.1904    22.5594 </r>
       <r>    -2.8317    25.0167    24.6068 </r>
       <r>    -2.7499    27.9181    26.8917 </r>
       <r>    -2.6680    38.0670    30.0071 </r>
       <r>    -2.5862    12.7344    31.0493 </r>
       <r>    -2.5044     7.3131    31.6478 </r>
       <r>    -2.4225     4.2298    31.9940 </r>
       <r>    -2.3407     0.0731    32.0000 </r>
       <r>    -2.2588     0.0000    32.0000 </r>
       <r>    -2.1770     0.0000    32.0000 </r>
       <r>    -2.0952     0.0000    32.0000 </r>
       <r>    -2.0133     0.0000    32.0000 </r>
       <r>    -1.9315     0.0000    32.0000 </r>
       <r>    -1.8496     0.0000    32.0000 </r>
       <r>    -1.7678     0.0000    32.0000 </r>
       <r>    -1.6859     0.0000    32.0000 </r>
       <r>    -1.6041     0.0000    32.0000 </r>
       <r>    -1.5223     0.0000    32.0000 </r>
       <r>    -1.4404     0.0000    32.0000 </r>
       <r>    -1.3586     0.0000    32.0000 </r>
       <r>    -1.2767     0.0000    32.0000 </r>
       <r>    -1.1949     0.0000    32.0000 </r>
       <r>    -1.1131     0.0000    32.0000 </r>
       <r>    -1.0312     0.0000    32.0000 </r>
       <r>    -0.9494     0.0000    32.0000 </r>
       <r>    -0.8675     0.0002    32.0000 </r>
       <r>    -0.7857     0.2605    32.0213 </r>
       <r>    -0.7038     6.5251    32.5554 </r>
       <r>    -0.6220    15.2831    33.8061 </r>
       <r>    -0.5402    19.6798    35.4168 </r>
       <r>    -0.4583    21.2841    37.1587 </r>
       <r>    -0.3765    15.4041    38.4194 </r>
       <r>    -0.2946     9.1959    39.1720 </r>
       <r>    -0.2128    13.1765    40.2504 </r>
       <r>    -0.1310    12.7072    41.2904 </r>
       <r>    -0.0491    10.7978    42.1741 </r>
       <r>     0.0327     6.4872    42.7050 </r>
       <r>     0.1146     7.2549    43.2988 </r>
       <r>     0.1964     8.4514    43.9904 </r>
       <r>     0.2783    12.7249    45.0319 </r>
       <r>     0.3601    17.2949    46.4473 </r>
       <r>     0.4419    15.7788    47.7387 </r>
       <r>     0.5238    17.8524    49.1998 </r>
       <r>     0.6056    16.2114    50.5265 </r>
       <r>     0.6875     9.7036    51.3207 </r>
       <r>     0.7693     8.2857    51.9988 </r>
       <r>     0.8511    11.4732    52.9378 </r>
       <r>     0.9330    13.5590    54.0475 </r>
       <r>     1.0148    16.8564    55.4270 </r>
       <r>     1.0967    20.2607    57.0852 </r>
       <r>     1.1785    21.6255    58.8551 </r>
       <r>     1.2604    22.9618    60.7343 </r>
       <r>     1.3422    24.5837    62.7463 </r>
       <r>     1.4240    11.1714    63.6606 </r>
       <r>     1.5059     3.5091    63.9478 </r>
       <r>     1.5877     0.5685    63.9943 </r>
       <r>     1.6696     0.0697    64.0000 </r>
       <r>     1.7514     0.0002    64.0000 </r>
       <r>     1.8333     0.0000    64.0000 </r>
       <r>     1.9151     0.0000    64.0000 </r>
       <r>     1.9969     0.0000    64.0000 </r>
       <r>     2.0788     0.0000    64.0000 </r>
       <r>     2.1606     0.0000    64.0000 </r>
       <r>     2.2425     0.0000    64.0000 </r>
       <r>     2.3243     0.0000    64.0000 </r>
       <r>     2.4061     0.0000    64.0000 </r>
       <r>     2.4880     0.0000    64.0000 </r>
       <r>     2.5698     0.0000    64.0000 </r>
       <r>     2.6517     0.0000    64.0000 </r>
       <r>     2.7335     0.0000    64.0000 </r>
       <r>     2.8154     0.0000    64.0000 </r>
       <r>     2.8972     0.0000    64.0000 </r>
       <r>     2.9790     0.0000    64.0000 </r>
       <r>     3.0609     0.0000    64.0000 </r>
       <r>     3.1427     0.0000    64.0000 </r>
       <r>     3.2246     0.0000    64.0000 </r>
       <r>     3.3064     0.0000    64.0000 </r>
       <r>     3.3882     0.0000    64.0000 </r>
       <r>     3.4701     0.0000    64.0000 </r>
       <r>     3.5519     0.0000    64.0000 </r>
       <r>     3.6338     0.0000    64.0000 </r>
       <r>     3.7156     0.0000    64.0000 </r>
       <r>     3.7975     0.0000    64.0000 </r>
       <r>     3.8793     0.0000    64.0000 </r>
       <r>     3.9611     0.0000    64.0000 </r>
       <r>     4.0430     0.0000    64.0000 </r>
       <r>     4.1248     0.0000    64.0000 </r>
       <r>     4.2067     0.0001    64.0000 </r>
       <r>     4.2885     0.0847    64.0069 </r>
       <r>     4.3703     1.1968    64.1049 </r>
       <r>     4.4522     3.4744    64.3892 </r>
       <r>     4.5340     3.7777    64.6984 </r>
       <r>     4.6159     1.1834    64.7953 </r>
       <r>     4.6977     7.1401    65.3796 </r>
       <r>     4.7796    10.3253    66.2247 </r>
       <r>     4.8614     4.2031    66.5687 </r>
       <r>     4.9432     3.8518    66.8839 </r>
       <r>     5.0251     4.9920    67.2925 </r>
       <r>     5.1069     2.9227    67.5317 </r>
       <r>     5.1888     1.9650    67.6925 </r>
       <r>     5.2706     3.4493    67.9748 </r>
       <r>     5.3524     0.4112    68.0084 </r>
       <r>     5.4343     1.0590    68.0951 </r>
       <r>     5.5161     0.5252    68.1381 </r>
       <r>     5.5980     2.1274    68.3122 </r>
       <r>     5.6798     5.0169    68.7228 </r>
       <r>     5.7617     7.6163    69.3461 </r>
       <r>     5.8435    15.9617    70.6524 </r>
       <r>     5.9253    14.6101    71.8482 </r>
       <r>     6.0072    12.1557    72.8430 </r>
       <r>     6.0890    16.4193    74.1868 </r>
       <r>     6.1709    18.1343    75.6709 </r>
       <r>     6.2527    10.2078    76.5064 </r>
       <r>     6.3345    11.5503    77.4517 </r>
       <r>     6.4164    19.4774    79.0457 </r>
       <r>     6.4982     8.3456    79.7287 </r>
       <r>     6.5801     3.0595    79.9791 </r>
       <r>     6.6619     0.2546    80.0000 </r>
       <r>     6.7438     0.0003    80.0000 </r>
       <r>     6.8256     0.0000    80.0000 </r>
       <r>     6.9074     0.0000    80.0000 </r>
       <r>     6.9893     0.0000    80.0000 </r>
       <r>     7.0711     0.0024    80.0002 </r>
       <r>     7.1530     0.4472    80.0368 </r>
       <r>     7.2348     1.9997    80.2005 </r>
       <r>     7.3166     2.8456    80.4333 </r>
       <r>     7.3985     2.3569    80.6262 </r>
       <r>     7.4803     1.7320    80.7680 </r>
       <r>     7.5622     3.1944    81.0294 </r>
       <r>     7.6440    10.0611    81.8528 </r>
       <r>     7.7259     4.6813    82.2360 </r>
       <r>     7.8077     3.6356    82.5335 </r>
       <r>     7.8895     4.3500    82.8895 </r>
       <r>     7.9714     8.3990    83.5769 </r>
       <r>     8.0532    14.4627    84.7606 </r>
       <r>     8.1351    11.9913    85.7420 </r>
       <r>     8.2169    10.7011    86.6178 </r>
       <r>     8.2988     9.3119    87.3799 </r>
       <r>     8.3806     9.8690    88.1875 </r>
       <r>     8.4624     4.7626    88.5773 </r>
       <r>     8.5443    10.0743    89.4018 </r>
       <r>     8.6261    11.6309    90.3537 </r>
       <r>     8.7080     8.6602    91.0625 </r>
       <r>     8.7898    12.7297    92.1043 </r>
       <r>     8.8716     7.9032    92.7511 </r>
       <r>     8.9535    11.4301    93.6866 </r>
       <r>     9.0353    16.5243    95.0390 </r>
       <r>     9.1172     8.1334    95.7046 </r>
       <r>     9.1990     2.6362    95.9204 </r>
       <r>     9.2809     0.9011    95.9941 </r>
       <r>     9.3627     0.0719    96.0000 </r>
       <r>     9.4445     0.0001    96.0000 </r>
       <r>     9.5264     0.0000    96.0000 </r>
       <r>     9.6082     0.0000    96.0000 </r>
       <r>     9.6901     0.0000    96.0000 </r>
       <r>     9.7719     0.0000    96.0000 </r>
       <r>     9.8537     0.0000    96.0000 </r>
       <r>     9.9356     0.0000    96.0000 </r>
       <r>    10.0174     0.0000    96.0000 </r>
       <r>    10.0993     0.0000    96.0000 </r>
       <r>    10.1811     0.0000    96.0000 </r>
       <r>    10.2630     0.0000    96.0000 </r>
       <r>    10.3448     0.0000    96.0000 </r>
      </set>
     </set>
    </array>
   </total>
  </dos>
 </calculation>
 <structure name="finalpos" >
  <crystal>
   <varray name="basis" >
    <v>       7.77278159       0.00000000       0.00000000 </v>
    <v>       0.00000000       6.61811080       0.00000000 </v>
    <v>       0.00000000       0.00000000       6.22593617 </v>
   </varray>
   <i name="volume">    320.26919055 </i>
   <varray name="rec_basis" >
    <v>       0.12865407       0.00000000       0.00000000 </v>
    <v>       0.00000000       0.15110052       0.00000000 </v>
    <v>       0.00000000       0.00000000       0.16061842 </v>
   </varray>
  </crystal>
  <varray name="positions" >
   <v>       0.74366662       0.68283042       0.49994865 </v>
   <v>       0.25633338       0.68283042       0.49994865 </v>
   <v>       0.75633338       0.31716958      -0.00005135 </v>
   <v>       0.24366662       0.31716958      -0.00005135 </v>
   <v>       0.50000000       0.85654472       0.99213726 </v>
   <v>       0.00000000       0.14345528       0.49213726 </v>
   <v>       0.50000000       0.18106779       0.50060887 </v>
   <v>       0.00000000       0.81893221       0.00060887 </v>
   <v>       0.71791577       0.32605558       0.39119047 </v>
   <v>       0.28208423       0.32605558       0.39119047 </v>
   <v>       0.78208423       0.67394442       0.89119047 </v>
   <v>       0.21791577       0.67394442       0.89119047 </v>
   <v>       0.50000000       0.88712740       0.39155298 </v>
   <v>       0.00000000       0.11287260       0.89155298 </v>
   <v>       0.50000000       0.19120660       0.83182265 </v>
   <v>       0.00000000       0.80879340       0.33182265 </v>
  </varray>
 </structure>
</modeling>
