unknown system                          
           1
     7.708290    0.000000    0.000000
     0.000000    6.535210    0.000000
     0.000000    0.000000    6.136500
   Li   P    S 
     6     2     8
Direct configuration=     1
   0.75020000  0.66910000  0.51790000
   0.24980000  0.66910000  0.51790000
   0.74980000  0.33090000  0.01790000
   0.25020000  0.33090000  0.01790000
   0.50000000  0.85500000  0.98600000
   0.00000000  0.14500000  0.48600000
   0.50000000  0.17820000  0.49420000
   0.00000000  0.82180000  0.99420000
   0.71850000  0.32830000  0.38570000
   0.28150000  0.32830000  0.38570000
   0.78150000  0.67170000  0.88570000
   0.21850000  0.67170000  0.88570000
   0.50000000  0.89170000  0.38800000
   0.00000000  0.10830000  0.88800000
   0.50000000  0.19510000  0.82300000
   0.00000000  0.80490000  0.32300000
unknown system                          
           1
     7.730410    0.000000    0.000000
     0.000000    6.652905    0.000000
     0.000000    0.000000    6.297116
   Li   P    S 
     6     2     8
Direct configuration=     2
   0.74947705  0.67082604  0.51391917
   0.25052295  0.67082604  0.51391917
   0.75052295  0.32917396  0.01391917
   0.24947705  0.32917396  0.01391917
   0.50000000  0.85539295  0.98578864
  -0.00000000  0.14460705  0.48578864
   0.50000000  0.18444829  0.49448021
  -0.00000000  0.81555171  0.99448021
   0.71922707  0.32843358  0.38759125
   0.28077293  0.32843358  0.38759125
   0.78077293  0.67156642  0.88759125
   0.21922707  0.67156642  0.88759125
   0.50000000  0.88252019  0.38569804
  -0.00000000  0.11747981  0.88569804
   0.50000000  0.19499702  0.82941226
  -0.00000000  0.80500298  0.32941226
unknown system                          
           1
     7.722429    0.000000    0.000000
     0.000000    6.610438    0.000000
     0.000000    0.000000    6.239162
   Li   P    S 
     6     2     8
Direct configuration=     3
   0.74973716  0.67021426  0.51531891
   0.25026284  0.67021426  0.51531891
   0.75026284  0.32978574  0.01531891
   0.24973716  0.32978574  0.01531891
   0.50000000  0.85525367  0.98586296
  -0.00000000  0.14474633  0.48586296
   0.50000000  0.18223364  0.49438168
  -0.00000000  0.81776636  0.99438168
   0.71896548  0.32838624  0.38692625
   0.28103452  0.32838624  0.38692625
   0.78103452  0.67161376  0.88692625
   0.21896548  0.67161376  0.88692625
   0.50000000  0.88577388  0.38650746
  -0.00000000  0.11422612  0.88650746
   0.50000000  0.19503352  0.82715758
  -0.00000000  0.80496648  0.32715758
unknown system                          
           1
     7.724623    0.000000    0.000000
     0.000000    6.607911    0.000000
     0.000000    0.000000    6.276852
   Li   P    S 
     6     2     8
Direct configuration=     4
   0.74901319  0.67191330  0.51241837
   0.25098681  0.67191330  0.51241837
   0.75098681  0.32808670  0.01241837
   0.24901319  0.32808670  0.01241837
   0.50000000  0.85593277  0.98600447
  -0.00000000  0.14406723  0.48600447
   0.50000000  0.18027276  0.49662442
  -0.00000000  0.81972724  0.99662442
   0.71911471  0.32822050  0.38830594
   0.28088529  0.32822050  0.38830594
   0.78088529  0.67177950  0.88830594
   0.21911471  0.67177950  0.88830594
   0.50000000  0.88610445  0.38758377
  -0.00000000  0.11389555  0.88758377
   0.50000000  0.19459650  0.82673874
  -0.00000000  0.80540350  0.32673874
unknown system                          
           1
     7.727132    0.000000    0.000000
     0.000000    6.605020    0.000000
     0.000000    0.000000    6.319954
   Li   P    S 
     6     2     8
Direct configuration=     5
   0.74818547  0.67385709  0.50912117
   0.25181453  0.67385709  0.50912117
   0.75181453  0.32614291  0.00912117
   0.24818547  0.32614291  0.00912117
   0.50000000  0.85670968  0.98616533
   0.00000000  0.14329032  0.48616533
   0.50000000  0.17802940  0.49917385
   0.00000000  0.82197060  0.99917385
   0.71928533  0.32803089  0.38987429
   0.28071467  0.32803089  0.38987429
   0.78071467  0.67196911  0.88987429
   0.21928533  0.67196911  0.88987429
   0.50000000  0.88648264  0.38880726
   0.00000000  0.11351736  0.88880726
   0.50000000  0.19409653  0.82626262
   0.00000000  0.80590347  0.32626262
unknown system                          
           1
     7.692166    0.000000    0.000000
     0.000000    6.598051    0.000000
     0.000000    0.000000    6.313558
   Li   P    S 
     6     2     8
Direct configuration=     6
   0.74722776  0.67603487  0.50666106
   0.25277224  0.67603487  0.50666106
   0.75277224  0.32396513  0.00666106
   0.24722776  0.32396513  0.00666106
   0.50000000  0.85735308  0.98661636
   0.00000000  0.14264692  0.48661636
   0.50000000  0.17942203  0.50024722
   0.00000000  0.82057797  0.00024722
   0.71834985  0.32645307  0.39133173
   0.28165015  0.32645307  0.39133173
   0.78165015  0.67354693  0.89133173
   0.21834985  0.67354693  0.89133173
   0.50000000  0.88598473  0.39002380
   0.00000000  0.11401527  0.89002380
   0.50000000  0.19313573  0.82552703
   0.00000000  0.80686427  0.32552703
unknown system                          
           1
     7.692588    0.000000    0.000000
     0.000000    6.598135    0.000000
     0.000000    0.000000    6.313635
   Li   P    S 
     6     2     8
Direct configuration=     7
   0.74723937  0.67600857  0.50669077
   0.25276063  0.67600857  0.50669077
   0.75276063  0.32399143  0.00669077
   0.24723937  0.32399143  0.00669077
   0.50000000  0.85734531  0.98661091
   0.00000000  0.14265469  0.48661091
   0.50000000  0.17940521  0.50023425
   0.00000000  0.82059479  0.00023425
   0.71836118  0.32647212  0.39131413
   0.28163882  0.32647212  0.39131413
   0.78163882  0.67352788  0.89131413
   0.21836118  0.67352788  0.89131413
   0.50000000  0.88599075  0.39000911
   0.00000000  0.11400925  0.89000911
   0.50000000  0.19314733  0.82553592
   0.00000000  0.80685267  0.32553592
unknown system                          
           1
     7.701683    0.000000    0.000000
     0.000000    6.603591    0.000000
     0.000000    0.000000    6.305126
   Li   P    S 
     6     2     8
Direct configuration=     8
   0.74634377  0.67788632  0.50515247
   0.25365623  0.67788632  0.50515247
   0.75365623  0.32211368  0.00515247
   0.24634377  0.32211368  0.00515247
   0.50000000  0.85781826  0.98738319
   0.00000000  0.14218174  0.48738319
   0.50000000  0.17943535  0.50019514
   0.00000000  0.82056465  0.00019514
   0.71878303  0.32581578  0.39150867
   0.28121697  0.32581578  0.39150867
   0.78121697  0.67418422  0.89150867
   0.21878303  0.67418422  0.89150867
   0.50000000  0.88563121  0.39095211
   0.00000000  0.11436879  0.89095211
   0.50000000  0.19224291  0.82654729
   0.00000000  0.80775709  0.32654729
unknown system                          
           1
     7.716244    0.000000    0.000000
     0.000000    6.612327    0.000000
     0.000000    0.000000    6.291502
   Li   P    S 
     6     2     8
Direct configuration=     9
   0.74491153  0.68089026  0.50268620
   0.25508847  0.68089026  0.50268620
   0.75508847  0.31910974  0.00268620
   0.24491153  0.31910974  0.00268620
   0.50000000  0.85857488  0.98862134
   0.00000000  0.14142512  0.48862134
   0.50000000  0.17948357  0.50013242
   0.00000000  0.82051643  0.00013242
   0.71945763  0.32476580  0.39182056
   0.28054237  0.32476580  0.39182056
   0.78054237  0.67523420  0.89182056
   0.21945763  0.67523420  0.89182056
   0.50000000  0.88505605  0.39246396
   0.00000000  0.11494395  0.89246396
   0.50000000  0.19079606  0.82816877
   0.00000000  0.80920394  0.32816877
unknown system                          
           1
     7.732042    0.000000    0.000000
     0.000000    6.612383    0.000000
     0.000000    0.000000    6.264786
   Li   P    S 
     6     2     8
Direct configuration=    10
   0.74468484  0.68144797  0.50226941
   0.25531516  0.68144797  0.50226941
   0.75531516  0.31855203  0.00226941
   0.24468484  0.31855203  0.00226941
   0.50000000  0.85852504  0.98963775
   0.00000000  0.14147496  0.48963775
   0.50000000  0.17891703  0.50052844
   0.00000000  0.82108297  0.00052844
   0.71941461  0.32489018  0.39153209
   0.28058539  0.32489018  0.39153209
   0.78058539  0.67510982  0.89153209
   0.21941461  0.67510982  0.89153209
   0.50000000  0.88571253  0.39209858
   0.00000000  0.11428747  0.89209858
   0.50000000  0.19090598  0.82853225
   0.00000000  0.80909402  0.32853225
unknown system                          
           1
     7.731834    0.000000    0.000000
     0.000000    6.612382    0.000000
     0.000000    0.000000    6.265137
   Li   P    S 
     6     2     8
Direct configuration=    11
   0.74468781  0.68144066  0.50227490
   0.25531219  0.68144066  0.50227490
   0.75531219  0.31855934  0.00227490
   0.24468781  0.31855934  0.00227490
   0.50000000  0.85852569  0.98962435
   0.00000000  0.14147431  0.48962435
   0.50000000  0.17892447  0.50052322
   0.00000000  0.82107553  0.00052322
   0.71941517  0.32488855  0.39153589
   0.28058483  0.32488855  0.39153589
   0.78058483  0.67511145  0.89153589
   0.21941517  0.67511145  0.89153589
   0.50000000  0.88570392  0.39210339
   0.00000000  0.11429608  0.89210339
   0.50000000  0.19090454  0.82852746
   0.00000000  0.80909546  0.32852746
unknown system                          
           1
     7.739718    0.000000    0.000000
     0.000000    6.615267    0.000000
     0.000000    0.000000    6.251080
   Li   P    S 
     6     2     8
Direct configuration=    12
   0.74455399  0.68173361  0.50199677
   0.25544601  0.68173361  0.50199677
   0.75544601  0.31826639  0.00199677
   0.24455399  0.31826639  0.00199677
   0.50000000  0.85837839  0.99042904
   0.00000000  0.14162161  0.49042904
   0.50000000  0.17924616  0.50023420
   0.00000000  0.82075384  0.00023420
   0.71912507  0.32489810  0.39139748
   0.28087493  0.32489810  0.39139748
   0.78087493  0.67510190  0.89139748
   0.21912507  0.67510190  0.89139748
   0.50000000  0.88591131  0.39157281
   0.00000000  0.11408869  0.89157281
   0.50000000  0.19106426  0.82937544
   0.00000000  0.80893574  0.32937544
unknown system                          
           1
     7.752453    0.000000    0.000000
     0.000000    6.619928    0.000000
     0.000000    0.000000    6.228372
   Li   P    S 
     6     2     8
Direct configuration=    13
   0.74433805  0.68220664  0.50154648
   0.25566195  0.68220664  0.50154648
   0.75566195  0.31779336  0.00154648
   0.24433805  0.31779336  0.00154648
   0.50000000  0.85814054  0.99173183
   0.00000000  0.14185946  0.49173183
   0.50000000  0.17976559  0.49976628
   0.00000000  0.82023441 -0.00023372
   0.71865693  0.32491352  0.39117340
   0.28134307  0.32491352  0.39117340
   0.78134307  0.67508648  0.89117340
   0.21865693  0.67508648  0.89117340
   0.50000000  0.88624620  0.39071380
   0.00000000  0.11375380  0.89071380
   0.50000000  0.19132216  0.83074833
   0.00000000  0.80867784  0.33074833
unknown system                          
           1
     7.753318    0.000000    0.000000
     0.000000    6.620244    0.000000
     0.000000    0.000000    6.226830
   Li   P    S 
     6     2     8
Direct configuration=    14
   0.74432341  0.68223874  0.50151579
   0.25567659  0.68223874  0.50151579
   0.75567659  0.31776126  0.00151579
   0.24432341  0.31776126  0.00151579
   0.50000000  0.85812441  0.99182061
   0.00000000  0.14187559  0.49182061
   0.50000000  0.17980083  0.49973439
   0.00000000  0.82019917 -0.00026561
   0.71862519  0.32491457  0.39115813
   0.28137481  0.32491457  0.39115813
   0.78137481  0.67508543  0.89115813
   0.21862519  0.67508543  0.89115813
   0.50000000  0.88626892  0.39065526
   0.00000000  0.11373108  0.89065526
   0.50000000  0.19133966  0.83084189
   0.00000000  0.80866034  0.33084189
unknown system                          
           1
     7.759846    0.000000    0.000000
     0.000000    6.621430    0.000000
     0.000000    0.000000    6.229947
   Li   P    S 
     6     2     8
Direct configuration=    15
   0.74423296  0.68226513  0.50126966
   0.25576704  0.68226513  0.50126966
   0.75576704  0.31773487  0.00126966
   0.24423296  0.31773487  0.00126966
   0.50000000  0.85802005  0.99194918
   0.00000000  0.14197995  0.49194918
   0.50000000  0.18006542  0.49992416
   0.00000000  0.81993458 -0.00007584
   0.71854530  0.32506681  0.39113548
   0.28145470  0.32506681  0.39113548
   0.78145470  0.67493319  0.89113548
   0.21854530  0.67493319  0.89113548
   0.50000000  0.88632902  0.39060733
   0.00000000  0.11367098  0.89060733
   0.50000000  0.19130655  0.83110905
   0.00000000  0.80869345  0.33110905
unknown system                          
           1
     7.765103    0.000000    0.000000
     0.000000    6.622386    0.000000
     0.000000    0.000000    6.232457
   Li   P    S 
     6     2     8
Direct configuration=    16
   0.74416018  0.68228638  0.50107156
   0.25583982  0.68228638  0.50107156
   0.75583982  0.31771362  0.00107156
   0.24416018  0.31771362  0.00107156
   0.50000000  0.85793603  0.99205266
   0.00000000  0.14206397  0.49205266
   0.50000000  0.18027844  0.50007689
   0.00000000  0.81972156  0.00007689
   0.71848102  0.32518939  0.39111725
   0.28151898  0.32518939  0.39111725
   0.78151898  0.67481061  0.89111725
   0.21848102  0.67481061  0.89111725
   0.50000000  0.88637741  0.39056875
   0.00000000  0.11362259  0.89056875
   0.50000000  0.19127989  0.83132407
   0.00000000  0.80872011  0.33132407
unknown system                          
           1
     7.768000    0.000000    0.000000
     0.000000    6.620203    0.000000
     0.000000    0.000000    6.233184
   Li   P    S 
     6     2     8
Direct configuration=    17
   0.74406984  0.68230811  0.50083920
   0.25593016  0.68230811  0.50083920
   0.75593016  0.31769189  0.00083920
   0.24406984  0.31769189  0.00083920
   0.50000000  0.85781989  0.99212750
   0.00000000  0.14218011  0.49212750
   0.50000000  0.18041056  0.50026690
   0.00000000  0.81958944  0.00026690
   0.71833324  0.32531194  0.39115664
   0.28166676  0.32531194  0.39115664
   0.78166676  0.67468806  0.89115664
   0.21833324  0.67468806  0.89115664
   0.50000000  0.88659861  0.39067352
   0.00000000  0.11340139  0.89067352
   0.50000000  0.19124555  0.83134040
   0.00000000  0.80875445  0.33134040
unknown system                          
           1
     7.773163    0.000000    0.000000
     0.000000    6.616312    0.000000
     0.000000    0.000000    6.234479
   Li   P    S 
     6     2     8
Direct configuration=    18
   0.74390894  0.68234683  0.50042520
   0.25609106  0.68234683  0.50042520
   0.75609106  0.31765317  0.00042520
   0.24390894  0.31765317  0.00042520
   0.50000000  0.85761288  0.99226083
   0.00000000  0.14238712  0.49226083
   0.50000000  0.18064608  0.50060545
   0.00000000  0.81935392  0.00060545
   0.71807001  0.32553038  0.39122682
   0.28192999  0.32553038  0.39122682
   0.78192999  0.67446962  0.89122682
   0.21807001  0.67446962  0.89122682
   0.50000000  0.88699292  0.39086017
   0.00000000  0.11300708  0.89086017
   0.50000000  0.19118434  0.83136951
   0.00000000  0.80881566  0.33136951
unknown system                          
           1
     7.774251    0.000000    0.000000
     0.000000    6.615492    0.000000
     0.000000    0.000000    6.234752
   Li   P    S 
     6     2     8
Direct configuration=    19
   0.74387504  0.68235500  0.50033795
   0.25612496  0.68235500  0.50033795
   0.75612496  0.31764500  0.00033795
   0.24387504  0.31764500  0.00033795
   0.50000000  0.85756921  0.99228893
   0.00000000  0.14243079  0.49228893
   0.50000000  0.18069575  0.50067679
   0.00000000  0.81930425  0.00067679
   0.71801456  0.32557645  0.39124161
   0.28198544  0.32557645  0.39124161
   0.78198544  0.67442355  0.89124161
   0.21801456  0.67442355  0.89124161
   0.50000000  0.88707609  0.39089951
   0.00000000  0.11292391  0.89089951
   0.50000000  0.19117143  0.83137564
   0.00000000  0.80882857  0.33137564
unknown system                          
           1
     7.772908    0.000000    0.000000
     0.000000    6.615753    0.000000
     0.000000    0.000000    6.233539
   Li   P    S 
     6     2     8
Direct configuration=    20
   0.74383334  0.68240418  0.50025874
   0.25616666  0.68240418  0.50025874
   0.75616666  0.31759582  0.00025874
   0.24383334  0.31759582  0.00025874
   0.50000000  0.85744118  0.99229810
   0.00000000  0.14255882  0.49229810
   0.50000000  0.18079753  0.50062028
   0.00000000  0.81920247  0.00062028
   0.71794456  0.32564425  0.39127482
   0.28205544  0.32564425  0.39127482
   0.78205544  0.67435575  0.89127482
   0.21794456  0.67435575  0.89127482
   0.50000000  0.88705159  0.39099806
   0.00000000  0.11294841  0.89099806
   0.50000000  0.19119333  0.83141644
   0.00000000  0.80880667  0.33141644
unknown system                          
           1
     7.772064    0.000000    0.000000
     0.000000    6.615918    0.000000
     0.000000    0.000000    6.232776
   Li   P    S 
     6     2     8
Direct configuration=    21
   0.74380710  0.68243513  0.50020888
   0.25619290  0.68243513  0.50020888
   0.75619290  0.31756487  0.00020888
   0.24380710  0.31756487  0.00020888
   0.50000000  0.85736063  0.99230388
   0.00000000  0.14263937  0.49230388
   0.50000000  0.18086157  0.50058472
   0.00000000  0.81913843  0.00058472
   0.71790051  0.32568690  0.39129572
   0.28209949  0.32568690  0.39129572
   0.78209949  0.67431310  0.89129572
   0.21790051  0.67431310  0.89129572
   0.50000000  0.88703617  0.39106009
   0.00000000  0.11296383  0.89106009
   0.50000000  0.19120711  0.83144212
   0.00000000  0.80879289  0.33144212
unknown system                          
           1
     7.772407    0.000000    0.000000
     0.000000    6.617049    0.000000
     0.000000    0.000000    6.231228
   Li   P    S 
     6     2     8
Direct configuration=    22
   0.74377158  0.68250828  0.50014985
   0.25622842  0.68250828  0.50014985
   0.75622842  0.31749172  0.00014985
   0.24377158  0.31749172  0.00014985
   0.50000000  0.85720443  0.99229639
   0.00000000  0.14279557  0.49229639
   0.50000000  0.18085806  0.50057417
   0.00000000  0.81914194  0.00057417
   0.71791977  0.32580420  0.39127693
   0.28208023  0.32580420  0.39127693
   0.78208023  0.67419580  0.89127693
   0.21791977  0.67419580  0.89127693
   0.50000000  0.88701187  0.39117679
   0.00000000  0.11298813  0.89117679
   0.50000000  0.19123094  0.83149908
   0.00000000  0.80876906  0.33149908
unknown system                          
           1
     7.772760    0.000000    0.000000
     0.000000    6.618213    0.000000
     0.000000    0.000000    6.229633
   Li   P    S 
     6     2     8
Direct configuration=    23
   0.74373501  0.68258359  0.50008905
   0.25626499  0.68258359  0.50008905
   0.75626499  0.31741641  0.00008905
   0.24373501  0.31741641  0.00008905
   0.50000000  0.85704363  0.99228868
   0.00000000  0.14295637  0.49228868
   0.50000000  0.18085445  0.50056331
   0.00000000  0.81914555  0.00056331
   0.71793959  0.32592497  0.39125758
   0.28206041  0.32592497  0.39125758
   0.78206041  0.67407503  0.89125758
   0.21793959  0.67407503  0.89125758
   0.50000000  0.88698685  0.39129699
   0.00000000  0.11301315  0.89129699
   0.50000000  0.19125547  0.83155775
   0.00000000  0.80874453  0.33155775
unknown system                          
           1
     7.773467    0.000000    0.000000
     0.000000    6.620542    0.000000
     0.000000    0.000000    6.226445
   Li   P    S 
     6     2     8
Direct configuration=    24
   0.74366186  0.68273418  0.49996742
   0.25633814  0.68273418  0.49996742
   0.75633814  0.31726582 -0.00003258
   0.24366186  0.31726582 -0.00003258
   0.50000000  0.85672207  0.99227325
   0.00000000  0.14327793  0.49227325
   0.50000000  0.18084722  0.50054158
   0.00000000  0.81915278  0.00054158
   0.71797925  0.32616646  0.39121888
   0.28202075  0.32616646  0.39121888
   0.78202075  0.67383354  0.89121888
   0.21797925  0.67383354  0.89121888
   0.50000000  0.88693681  0.39153745
   0.00000000  0.11306319  0.89153745
   0.50000000  0.19130452  0.83167513
   0.00000000  0.80869548  0.33167513
unknown system                          
           1
     7.772926    0.000000    0.000000
     0.000000    6.618759    0.000000
     0.000000    0.000000    6.228886
   Li   P    S 
     6     2     8
Direct configuration=    25
   0.74371785  0.68261894  0.50006058
   0.25628215  0.68261894  0.50006058
   0.75628215  0.31738106  0.00006058
   0.24371785  0.31738106  0.00006058
   0.50000000  0.85696814  0.99228507
   0.00000000  0.14303186  0.49228507
   0.50000000  0.18085275  0.50055822
   0.00000000  0.81914725  0.00055822
   0.71794889  0.32598166  0.39124852
   0.28205111  0.32598166  0.39124852
   0.78205111  0.67401834  0.89124852
   0.21794889  0.67401834  0.89124852
   0.50000000  0.88697510  0.39135328
   0.00000000  0.11302490  0.89135328
   0.50000000  0.19126698  0.83158523
   0.00000000  0.80873302  0.33158523
unknown system                          
           1
     7.772430    0.000000    0.000000
     0.000000    6.618411    0.000000
     0.000000    0.000000    6.227158
   Li   P    S 
     6     2     8
Direct configuration=    26
   0.74368650  0.68272346  0.49999910
   0.25631350  0.68272346  0.49999910
   0.75631350  0.31727654 -0.00000090
   0.24368650  0.31727654 -0.00000090
   0.50000000  0.85676006  0.99222920
   0.00000000  0.14323994  0.49222920
   0.50000000  0.18090923  0.50052316
   0.00000000  0.81909077  0.00052316
   0.71793774  0.32603662  0.39122272
   0.28206226  0.32603662  0.39122272
   0.78206226  0.67396338  0.89122272
   0.21793774  0.67396338  0.89122272
   0.50000000  0.88704922  0.39149483
   0.00000000  0.11295078  0.89149483
   0.50000000  0.19125513  0.83170918
   0.00000000  0.80874487  0.33170918
unknown system                          
           1
     7.772232    0.000000    0.000000
     0.000000    6.618272    0.000000
     0.000000    0.000000    6.226466
   Li   P    S 
     6     2     8
Direct configuration=    27
   0.74367394  0.68276531  0.49997447
   0.25632606  0.68276531  0.49997447
   0.75632606  0.31723469 -0.00002553
   0.24367394  0.31723469 -0.00002553
   0.50000000  0.85667674  0.99220683
   0.00000000  0.14332326  0.49220683
   0.50000000  0.18093185  0.50050911
   0.00000000  0.81906815  0.00050911
   0.71793327  0.32605863  0.39121238
   0.28206673  0.32605863  0.39121238
   0.78206673  0.67394137  0.89121238
   0.21793327  0.67394137  0.89121238
   0.50000000  0.88707891  0.39155153
   0.00000000  0.11292109  0.89155153
   0.50000000  0.19125038  0.83175882
   0.00000000  0.80874962  0.33175882
unknown system                          
           1
     7.772782    0.000000    0.000000
     0.000000    6.618111    0.000000
     0.000000    0.000000    6.225936
   Li   P    S 
     6     2     8
Direct configuration=    28
   0.74366662  0.68283042  0.49994865
   0.25633338  0.68283042  0.49994865
   0.75633338  0.31716958 -0.00005135
   0.24366662  0.31716958 -0.00005135
   0.50000000  0.85654472  0.99213726
   0.00000000  0.14345528  0.49213726
   0.50000000  0.18106779  0.50060887
   0.00000000  0.81893221  0.00060887
   0.71791577  0.32605558  0.39119047
   0.28208423  0.32605558  0.39119047
   0.78208423  0.67394442  0.89119047
   0.21791577  0.67394442  0.89119047
   0.50000000  0.88712740  0.39155298
   0.00000000  0.11287260  0.89155298
   0.50000000  0.19120660  0.83182265
   0.00000000  0.80879340  0.33182265
