       N       E                     dE             d eps       ncg     rms          rms(c)
DAV:   1    -0.189664500818E+01   -0.18966E+01   -0.38155E+02   160   0.110E+02
DAV:   2    -0.256928770659E+01   -0.67264E+00   -0.65937E+00   216   0.815E+00
DAV:   3    -0.257288933284E+01   -0.36016E-02   -0.35984E-02   216   0.770E-01
DAV:   4    -0.257290847623E+01   -0.19143E-04   -0.19142E-04   224   0.484E-02
DAV:   5    -0.257290867380E+01   -0.19757E-06   -0.19764E-06   208   0.291E-03    0.295E-01
RMM:   6    -0.257272763884E+01    0.18103E-03   -0.88757E-05   160   0.510E-02    0.197E-01
RMM:   7    -0.257222532472E+01    0.50231E-03   -0.24131E-04   160   0.942E-02    0.110E-02
RMM:   8    -0.257221342232E+01    0.11902E-04   -0.14120E-06   160   0.552E-03    0.255E-03
RMM:   9    -0.257221270918E+01    0.71314E-06   -0.65288E-07   160   0.384E-03    0.182E-04
RMM:  10    -0.257221278828E+01   -0.79103E-07   -0.23510E-07   167   0.160E-03    0.180E-04
RMM:  11    -0.257221279534E+01   -0.70590E-08   -0.14473E-08   153   0.444E-04
   1 F= -.25722128E+01 E0= -.25631117E+01  d E =-.257221E+01
       N       E                     dE             d eps       ncg     rms          rms(c)
DAV:   1    -0.257242376202E+01   -0.21097E-03   -0.14859E-04   208   0.416E-02    0.224E-03
RMM:   2    -0.257242360567E+01    0.15635E-06   -0.17026E-06   158   0.444E-03    0.141E-03
RMM:   3    -0.257242314883E+01    0.45684E-06   -0.17624E-07   156   0.138E-03    0.145E-04
RMM:   4    -0.257242316742E+01   -0.18588E-07   -0.22647E-08   112   0.478E-04    0.109E-04
RMM:   5    -0.257242322013E+01   -0.52717E-07   -0.19922E-09   103   0.137E-04    0.142E-05
RMM:   6    -0.257242322356E+01   -0.34300E-08   -0.25787E-10    72   0.643E-05
   2 F= -.25724232E+01 E0= -.25633222E+01  d E =-.210428E-03
       N       E                     dE             d eps       ncg     rms          rms(c)
DAV:   1    -0.257279897089E+01   -0.37575E-03   -0.13255E-03   168   0.124E-01    0.693E-03
RMM:   2    -0.257279960536E+01   -0.63447E-06   -0.20185E-05   164   0.176E-02    0.423E-03
RMM:   3    -0.257279826376E+01    0.13416E-05   -0.22185E-06   162   0.528E-03    0.578E-04
RMM:   4    -0.257279828158E+01   -0.17824E-07   -0.37531E-07   156   0.224E-03    0.419E-04
RMM:   5    -0.257279845013E+01   -0.16854E-06   -0.56136E-08   154   0.742E-04    0.933E-05
RMM:   6    -0.257279846571E+01   -0.15581E-07   -0.68413E-10   103   0.138E-04    0.270E-05
RMM:   7    -0.257279845614E+01    0.95698E-08   -0.81340E-11    80   0.463E-05
   3 F= -.25727985E+01 E0= -.25636974E+01  d E =-.585661E-03
