<?xml version="1.0" encoding="ISO-8859-1"?>
<modeling>
 <generator>
  <i name="program" type="string">vasp </i>
  <i name="version" type="string">6.2.1  </i>
  <i name="subversion" type="string">16May21 (build Dec 23 2021 00:35:04) complex                          parallel </i>
  <i name="platform" type="string">LinuxIFC </i>
  <i name="date" type="string">2023 03 07 </i>
  <i name="time" type="string">13:48:56 </i>
 </generator>
 <incar>
  <i type="string" name="PREC">Normal</i>
  <i type="string" name="ALGO">Fast</i>
  <i type="int" name="ISPIN">     0</i>
  <i type="int" name="NELM">   150</i>
  <i type="int" name="IBRION">     2</i>
  <i name="EDIFF">      0.00000001</i>
  <i name="EDIFFG">     -0.01000000</i>
  <i type="int" name="NSW">   800</i>
  <i type="int" name="ISIF">     3</i>
  <i name="ENCUT">    400.00000000</i>
  <i type="string" name="LREAL">AUTO</i>
  <i type="int" name="ISMEAR">     0</i>
  <i name="SIGMA">      0.10000000</i>
  <i name="KSPACING">      0.50000000</i>
  <i type="logical" name="KGAMMA"> T  </i>
  <i type="int" name="NWRITE">     1</i>
  <i type="int" name="LMAXMIX">     6</i>
  <i type="logical" name="LWAVE"> F  </i>
  <i type="logical" name="LCHARG"> F  </i>
  <i type="logical" name="LASPH"> T  </i>
  <i type="string" name="GGA">PE</i>
 </incar>
 <primitive_cell>
  <structure name="primitive_cell" >
   <crystal>
    <varray name="basis" >
     <v>       2.08631100       2.08631100      -2.08631100 </v>
     <v>      -2.08631100       2.08631100       2.08631100 </v>
     <v>       2.08631100      -2.08631100       2.08631100 </v>
    </varray>
    <i name="volume">     36.32429006 </i>
    <varray name="rec_basis" >
     <v>       0.23965746       0.23965746       0.00000000 </v>
     <v>       0.00000000       0.23965746       0.23965746 </v>
     <v>       0.23965746       0.00000000       0.23965746 </v>
    </varray>
   </crystal>
   <varray name="positions" >
    <v>       0.00000000       0.00000000       0.00000000 </v>
   </varray>
  </structure>
  <varray name="primitive_index" >
   <v type="int" >        1 </v>
  </varray>
 </primitive_cell>
 <kpoints>
  <generation param="Gamma">
   <v type="int" name="divisions">       4        4        4 </v>
   <v name="usershift">      0.00000000       0.00000000       0.00000000 </v>
   <v name="genvec1">      0.25000000       0.00000000       0.00000000 </v>
   <v name="genvec2">      0.00000000       0.25000000       0.00000000 </v>
   <v name="genvec3">      0.00000000       0.00000000       0.25000000 </v>
   <v name="shift">      0.00000000       0.00000000       0.00000000 </v>
  </generation>
  <varray name="kpointlist" >
   <v>       0.00000000       0.00000000       0.00000000 </v>
   <v>       0.25000000       0.00000000       0.00000000 </v>
   <v>       0.50000000       0.00000000       0.00000000 </v>
   <v>       0.25000000       0.25000000       0.00000000 </v>
   <v>       0.50000000       0.25000000       0.00000000 </v>
   <v>       0.50000000       0.50000000       0.00000000 </v>
   <v>       0.25000000       0.25000000       0.25000000 </v>
   <v>       0.50000000       0.25000000       0.25000000 </v>
   <v>       0.50000000       0.50000000       0.25000000 </v>
   <v>       0.50000000       0.50000000       0.50000000 </v>
  </varray>
  <varray name="weights" >
   <v>       0.01562500 </v>
   <v>       0.09375000 </v>
   <v>       0.04687500 </v>
   <v>       0.18750000 </v>
   <v>       0.18750000 </v>
   <v>       0.04687500 </v>
   <v>       0.12500000 </v>
   <v>       0.18750000 </v>
   <v>       0.09375000 </v>
   <v>       0.01562500 </v>
  </varray>
 </kpoints>
 <parameters>
  <separator name="general" >
   <i type="string" name="SYSTEM">unknown system</i>
   <i type="logical" name="LCOMPAT"> F  </i>
  </separator>
  <separator name="electronic" >
   <i type="string" name="PREC">normal</i>
   <i name="ENMAX">    400.00000000</i>
   <i name="ENAUG">    250.69500000</i>
   <i name="EDIFF">      0.00000001</i>
   <i type="int" name="IALGO">    68</i>
   <i type="int" name="IWAVPR">    11</i>
   <i type="int" name="NBANDS">     8</i>
   <i type="int" name="NBANDSLOW">    -1</i>
   <i type="int" name="NBANDSHIGH">    -1</i>
   <i name="NELECT">      2.00000000</i>
   <i type="int" name="TURBO">     0</i>
   <i type="int" name="IRESTART">     0</i>
   <i type="int" name="NREBOOT">     0</i>
   <i type="int" name="NMIN">     0</i>
   <i name="EREF">      0.00000000</i>
   <separator name="electronic smearing" >
    <i type="int" name="ISMEAR">     0</i>
    <i name="SIGMA">      0.10000000</i>
    <i name="KSPACING">      0.50000000</i>
    <i type="logical" name="KGAMMA"> T  </i>
    <i type="logical" name="KBLOWUP"> T  </i>
   </separator>
   <separator name="electronic projectors" >
    <i type="logical" name="LREAL"> T  </i>
    <v name="ROPT">     -0.00050000</v>
    <i type="int" name="LMAXPAW">  -100</i>
    <i type="int" name="LMAXMIX">     6</i>
    <i type="logical" name="NLSPLINE"> F  </i>
   </separator>
   <separator name="electronic startup" >
    <i type="int" name="ISTART">     0</i>
    <i type="int" name="ICHARG">     2</i>
    <i type="int" name="INIWAV">     1</i>
   </separator>
   <separator name="electronic spin" >
    <i type="int" name="ISPIN">     1</i>
    <i type="logical" name="LNONCOLLINEAR"> F  </i>
    <v name="MAGMOM">      1.00000000      1.00000000</v>
    <i name="NUPDOWN">     -1.00000000</i>
    <i type="logical" name="LSORBIT"> F  </i>
    <v name="SAXIS">      0.00000000      0.00000000      1.00000000</v>
    <i type="logical" name="LSPIRAL"> F  </i>
    <v name="QSPIRAL">      0.00000000      0.00000000      0.00000000</v>
    <i type="logical" name="LZEROZ"> F  </i>
   </separator>
   <separator name="electronic exchange-correlation" >
    <i type="logical" name="LASPH"> T  </i>
    <i type="logical" name="LMETAGGA"> F  </i>
   </separator>
   <separator name="electronic convergence" >
    <i type="int" name="NELM">   150</i>
    <i type="int" name="NELMDL">    -5</i>
    <i type="int" name="NELMIN">     2</i>
    <i name="ENINI">    400.00000000</i>
    <separator name="electronic convergence detail" >
     <i type="logical" name="LDIAG"> T  </i>
     <i type="logical" name="LSUBROT"> F  </i>
     <i name="WEIMIN">      0.00100000</i>
     <i name="EBREAK">      0.00000000</i>
     <i name="DEPER">      0.30000000</i>
     <i type="int" name="NRMM">     4</i>
     <i name="TIME">      0.40000000</i>
    </separator>
   </separator>
   <separator name="electronic mixer" >
    <i name="AMIX">      0.40000000</i>
    <i name="BMIX">      1.00000000</i>
    <i name="AMIN">      0.10000000</i>
    <i name="AMIX_MAG">      1.60000000</i>
    <i name="BMIX_MAG">      1.00000000</i>
    <separator name="electronic mixer details" >
     <i type="int" name="IMIX">     4</i>
     <i type="logical" name="MIXFIRST"> F  </i>
     <i type="int" name="MAXMIX">   -45</i>
     <i name="WC">    100.00000000</i>
     <i type="int" name="INIMIX">     1</i>
     <i type="int" name="MIXPRE">     1</i>
     <i type="int" name="MREMOVE">     5</i>
    </separator>
   </separator>
   <separator name="electronic dipolcorrection" >
    <i type="logical" name="LDIPOL"> F  </i>
    <i type="logical" name="LMONO"> F  </i>
    <i type="int" name="IDIPOL">     0</i>
    <i name="EPSILON">      1.00000000</i>
    <v name="DIPOL">   -100.00000000   -100.00000000   -100.00000000</v>
    <i name="EFIELD">      0.00000000</i>
   </separator>
  </separator>
  <separator name="grids" >
   <i type="int" name="NGX">    20</i>
   <i type="int" name="NGY">    20</i>
   <i type="int" name="NGZ">    20</i>
   <i type="int" name="NGXF">    40</i>
   <i type="int" name="NGYF">    40</i>
   <i type="int" name="NGZF">    40</i>
   <i type="logical" name="ADDGRID"> F  </i>
  </separator>
  <separator name="ionic" >
   <i type="int" name="NSW">   800</i>
   <i type="int" name="IBRION">     2</i>
   <i type="int" name="MDALGO">     0</i>
   <i type="int" name="ISIF">     3</i>
   <i name="PSTRESS">      0.00000000</i>
   <i name="EDIFFG">     -0.01000000</i>
   <i type="int" name="NFREE">     1</i>
   <i name="POTIM">      0.50000000</i>
   <i name="SMASS">     -3.00000000</i>
   <i name="SCALEE">      1.00000000</i>
  </separator>
  <separator name="ionic md" >
   <i name="TEBEG">      0.00010000</i>
   <i name="TEEND">      0.00010000</i>
   <i type="int" name="NBLOCK">     1</i>
   <i type="int" name="KBLOCK">   800</i>
   <i type="int" name="NPACO">   256</i>
   <i name="APACO">     16.00000000</i>
  </separator>
  <separator name="symmetry" >
   <i type="int" name="ISYM">     2</i>
   <i name="SYMPREC">      0.00001000</i>
  </separator>
  <separator name="dos" >
   <i type="int" name="LORBIT">     0</i>
   <v name="RWIGS">     -1.00000000</v>
   <i type="int" name="NEDOS">   301</i>
   <i name="EMIN">     10.00000000</i>
   <i name="EMAX">    -10.00000000</i>
   <i name="EFERMI">      0.00000000</i>
  </separator>
  <separator name="writing" >
   <i type="int" name="NWRITE">     1</i>
   <i type="logical" name="LWAVE"> F  </i>
   <i type="logical" name="LDOWNSAMPLE"> F  </i>
   <i type="logical" name="LCHARG"> F  </i>
   <i type="logical" name="LPARD"> F  </i>
   <i type="logical" name="LVTOT"> F  </i>
   <i type="logical" name="LVHAR"> F  </i>
   <i type="logical" name="LELF"> F  </i>
   <i type="logical" name="LOPTICS"> F  </i>
   <v name="STM">      0.00000000      0.00000000      0.00000000      0.00000000      0.00000000      0.00000000      0.00000000</v>
  </separator>
  <separator name="performance" >
   <i type="int" name="NPAR">     8</i>
   <i type="int" name="NSIM">     4</i>
   <i type="int" name="NBLK">    -1</i>
   <i type="logical" name="LPLANE"> T  </i>
   <i type="logical" name="LSCALAPACK"> T  </i>
   <i type="logical" name="LSCAAWARE"> F  </i>
   <i type="logical" name="LSCALU"> F  </i>
   <i type="logical" name="LASYNC"> F  </i>
   <i type="logical" name="LORBITALREAL"> F  </i>
  </separator>
  <separator name="miscellaneous" >
   <i type="int" name="IDIOT">     3</i>
   <i type="int" name="PHON_NSTRUCT">    -1</i>
   <i type="logical" name="LMUSIC"> F  </i>
   <v name="POMASS">     22.99000000</v>
   <v name="DARWINR">      0.00000000</v>
   <v name="DARWINV">      1.00000000</v>
   <i type="logical" name="LCORR"> T  </i>
  </separator>
  <i type="logical" name="GGA_COMPAT"> T  </i>
  <i type="logical" name="LBERRY"> F  </i>
  <i type="int" name="ICORELEVEL">     0</i>
  <i type="logical" name="LDAU"> F  </i>
  <i type="int" name="I_CONSTRAINED_M">     0</i>
  <separator name="electronic exchange-correlation" >
   <i type="string" name="GGA">PE</i>
   <i type="int" name="VOSKOWN">     0</i>
   <i type="logical" name="LHFCALC"> F  </i>
   <i type="string" name="PRECFOCK"></i>
   <i type="logical" name="LSYMGRAD"> F  </i>
   <i type="logical" name="LHFONE"> F  </i>
   <i type="logical" name="LRHFCALC"> F  </i>
   <i type="logical" name="LTHOMAS"> F  </i>
   <i type="logical" name="LMODELHF"> F  </i>
   <i type="logical" name="LFOCKACE"> F  </i>
   <i name="ENCUT4O">     -1.00000000</i>
   <i type="int" name="EXXOEP">     0</i>
   <i type="int" name="FOURORBIT">     0</i>
   <i name="AEXX">      0.00000000</i>
   <i name="HFALPHA">      0.00000000</i>
   <i name="MCALPHA">      0.00000000</i>
   <i name="ALDAX">      1.00000000</i>
   <i name="AGGAX">      1.00000000</i>
   <i name="ALDAC">      1.00000000</i>
   <i name="AGGAC">      1.00000000</i>
   <i type="int" name="NKREDX">     1</i>
   <i type="int" name="NKREDY">     1</i>
   <i type="int" name="NKREDZ">     1</i>
   <i type="logical" name="SHIFTRED"> F  </i>
   <i type="logical" name="ODDONLY"> F  </i>
   <i type="logical" name="EVENONLY"> F  </i>
   <i type="int" name="LMAXFOCK">     0</i>
   <i type="int" name="NMAXFOCKAE">     0</i>
   <i type="logical" name="LFOCKAEDFT"> F  </i>
   <i name="HFSCREEN">      0.00000000</i>
   <i name="HFSCREENC">      0.00000000</i>
   <i type="int" name="NBANDSGWLOW">     0</i>
  </separator>
  <separator name="vdW DFT" >
   <i type="logical" name="LUSE_VDW"> F  </i>
   <i name="Zab_VDW">     -0.84910000</i>
   <i name="PARAM1">      0.12340000</i>
   <i name="PARAM2">      1.00000000</i>
   <i name="PARAM3">      0.00000000</i>
  </separator>
  <separator name="model GW" >
   <i type="int" name="MODEL_GW">     0</i>
   <i name="MODEL_EPS0">     21.79457403</i>
   <i name="MODEL_ALPHA">      1.00000000</i>
  </separator>
  <separator name="linear response parameters" >
   <i type="logical" name="LEPSILON"> F  </i>
   <i type="logical" name="LRPA"> F  </i>
   <i type="logical" name="LNABLA"> F  </i>
   <i type="logical" name="LVEL"> F  </i>
   <i type="int" name="KINTER">     0</i>
   <i name="CSHIFT">      0.10000000</i>
   <i name="OMEGAMAX">     -1.00000000</i>
   <i name="DEG_THRESHOLD">      0.00200000</i>
   <i name="RTIME">     -0.10000000</i>
   <i name="WPLASMAI">      0.00000000</i>
   <v name="DFIELD">      0.00000000      0.00000000      0.00000000</v>
   <v name="WPLASMA">      0.00000000      0.00000000      0.00000000      0.00000000      0.00000000      0.00000000      0.00000000      0.00000000      0.00000000</v>
  </separator>
  <separator name="orbital magnetization" >
   <i type="logical" name="NUCIND"> F  </i>
   <v name="MAGPOS">      0.00000000      0.00000000      0.00000000</v>
   <i type="logical" name="LNICSALL"> T  </i>
   <i type="logical" name="ORBITALMAG"> F  </i>
   <i type="logical" name="LMAGBLOCH"> F  </i>
   <i type="logical" name="LCHIMAG"> F  </i>
   <i type="logical" name="LGAUGE"> T  </i>
   <i type="int" name="MAGATOM">     0</i>
   <v name="MAGDIPOL">      0.00000000      0.00000000      0.00000000</v>
   <v name="AVECCONST">      0.00000000      0.00000000      0.00000000</v>
  </separator>
  <separator name="response functions" >
   <i type="logical" name="LFINITE_TEMPERATURE"> F  </i>
   <i type="logical" name="LADDER"> F  </i>
   <i type="logical" name="LRPAFORCE"> F  </i>
   <i type="logical" name="LFXC"> F  </i>
   <i type="logical" name="LHARTREE"> T  </i>
   <i type="int" name="IBSE">     0</i>
   <v type="int" name="KPOINT">    -1     0     0     0</v>
   <i type="logical" name="LTCTC"> F  </i>
   <i type="logical" name="LTCTE"> F  </i>
   <i type="logical" name="LTETE"> F  </i>
   <i type="logical" name="LTRIPLET"> F  </i>
   <i type="logical" name="LFXCEPS"> F  </i>
   <i type="logical" name="LFXHEG"> F  </i>
   <i type="int" name="NATURALO">     2</i>
   <i type="logical" name="LHOLEGF"> F  </i>
   <i type="logical" name="L2ORDER"> F  </i>
   <i type="logical" name="LDMP1"> F  </i>
   <i type="logical" name="LMP2LT"> F  </i>
   <i type="logical" name="LSMP2LT"> F  </i>
   <i type="logical" name="LGWLF"> F  </i>
   <i name="ENCUTGW">     -2.00000000</i>
   <i name="ENCUTGWSOFT">     -2.00000000</i>
   <i name="ENCUTLF">     -1.00000000</i>
   <i type="logical" name="LESF_SPLINES"> F  </i>
   <i type="int" name="LMAXMP2">    -1</i>
   <i name="SCISSOR">      0.00000000</i>
   <i type="int" name="NOMEGA">     0</i>
   <i type="int" name="NOMEGAR">     0</i>
   <i type="int" name="NBANDSGW">    -1</i>
   <i type="int" name="NBANDSO">    -1</i>
   <i type="int" name="NBANDSV">    -1</i>
   <i type="int" name="NELM">   150</i>
   <i type="int" name="NELMHF">     1</i>
   <i type="int" name="DIM">     3</i>
   <i type="int" name="IESPILON">     4</i>
   <i type="int" name="ANTIRES">     0</i>
   <i name="OMEGAMAX">    -30.00000000</i>
   <i name="OMEGAMIN">    -30.00000000</i>
   <i name="OMEGATL">   -200.00000000</i>
   <i type="int" name="OMEGAGRID">     0</i>
   <i name="CSHIFT">     -0.10000000</i>
   <i type="logical" name="LSELFENERGY"> F  </i>
   <i type="logical" name="LSPECTRAL"> F  </i>
   <i type="logical" name="LSPECTRALGW"> F  </i>
   <i type="logical" name="LSINGLES"> F  </i>
   <i type="logical" name="LFERMIGW"> F  </i>
   <i type="logical" name="ODDONLYGW"> F  </i>
   <i type="logical" name="EVENONLYGW"> F  </i>
   <i type="int" name="NKREDLFX">     1</i>
   <i type="int" name="NKREDLFY">     1</i>
   <i type="int" name="NKREDLFZ">     1</i>
   <i type="int" name="MAXMEM">  2800</i>
   <i type="int" name="TELESCOPE">     0</i>
   <i type="int" name="NTAUPAR">    -1</i>
   <i type="int" name="NOMEGAPAR">    -1</i>
   <i name="DAMP_NEWTON">      0.80000001</i>
   <i name="LAMBDA">      1.00000000</i>
  </separator>
  <separator name="External order field" >
   <i name="OFIELD_KAPPA">      0.00000000</i>
   <v name="OFIELD_K">      0.00000000      0.00000000      0.00000000</v>
   <i name="OFIELD_Q6_NEAR">      0.00000000</i>
   <i name="OFIELD_Q6_FAR">      0.00000000</i>
   <i name="OFIELD_A">      0.00000000</i>
  </separator>
 </parameters>
 <atominfo>
  <atoms>       2 </atoms>
  <types>       1 </types>
  <array name="atoms" >
   <dimension dim="1">ion</dimension>
   <field type="string">element</field>
   <field type="int">atomtype</field>
   <set>
    <rc><c>Na</c><c>   1</c></rc>
    <rc><c>Na</c><c>   1</c></rc>
   </set>
  </array>
  <array name="atomtypes" >
   <dimension dim="1">type</dimension>
   <field type="int">atomspertype</field>
   <field type="string">element</field>
   <field>mass</field>
   <field>valence</field>
   <field type="string">pseudopotential</field>
   <set>
    <rc><c>   2</c><c>Na</c><c>     22.99000000</c><c>      1.00000000</c><c>  PAW_PBE Na 08Apr2002                  </c></rc>
   </set>
  </array>
 </atominfo>
 <structure name="initialpos" >
  <crystal>
   <varray name="basis" >
    <v>       4.17262200       0.00000000       0.00000000 </v>
    <v>       0.00000000       4.17262200       0.00000000 </v>
    <v>       0.00000000       0.00000000       4.17262200 </v>
   </varray>
   <i name="volume">     72.64858011 </i>
   <varray name="rec_basis" >
    <v>       0.23965746       0.00000000       0.00000000 </v>
    <v>       0.00000000       0.23965746       0.00000000 </v>
    <v>       0.00000000       0.00000000       0.23965746 </v>
   </varray>
  </crystal>
  <varray name="positions" >
   <v>       0.00000000       0.00000000       0.00000000 </v>
   <v>       0.50000000       0.50000000       0.50000000 </v>
  </varray>
 </structure>
 <calculation>
  <scstep>
   <time name="dav">    0.03    0.04</time>
   <time name="total">    0.08    0.09</time>
   <energy>
    <i name="alphaZ">     -1.00847372 </i>
    <i name="ewald">    -12.55905457 </i>
    <i name="hartreedc">     -0.00683451 </i>
    <i name="XCdc">    -73.13298771 </i>
    <i name="pawpsdc">     79.75229217 </i>
    <i name="pawaedc">     -4.73530507 </i>
    <i name="eentropy">     -0.01231285 </i>
    <i name="bandstr">     -0.51006763 </i>
    <i name="atom">     10.31609890 </i>
    <i name="e_fr_energy">     -1.89664501 </i>
    <i name="e_wo_entrp">     -1.88433215 </i>
    <i name="e_0_energy">     -1.89048858 </i>
   </energy>
  </scstep>
  <scstep>
   <time name="dav">    0.03    0.03</time>
   <time name="total">    0.03    0.03</time>
   <energy>
    <i name="e_fr_energy">     -2.56928771 </i>
    <i name="e_wo_entrp">     -2.55108890 </i>
    <i name="e_0_energy">     -2.56018831 </i>
   </energy>
  </scstep>
  <scstep>
   <time name="dav">    0.03    0.03</time>
   <time name="total">    0.03    0.03</time>
   <energy>
    <i name="e_fr_energy">     -2.57288933 </i>
    <i name="e_wo_entrp">     -2.55468722 </i>
    <i name="e_0_energy">     -2.56378828 </i>
   </energy>
  </scstep>
  <scstep>
   <time name="dav">    0.03    0.03</time>
   <time name="total">    0.03    0.03</time>
   <energy>
    <i name="e_fr_energy">     -2.57290848 </i>
    <i name="e_wo_entrp">     -2.55470636 </i>
    <i name="e_0_energy">     -2.56380742 </i>
   </energy>
  </scstep>
  <scstep>
   <time name="dav">    0.03    0.03</time>
   <time name="total">    0.03    0.04</time>
   <energy>
    <i name="e_fr_energy">     -2.57290867 </i>
    <i name="e_wo_entrp">     -2.55470656 </i>
    <i name="e_0_energy">     -2.56380762 </i>
   </energy>
  </scstep>
  <scstep>
   <time name="diag">    0.10    0.11</time>
   <time name="diis">    0.01    0.01</time>
   <time name="orth">    0.00    0.00</time>
   <time name="total">    0.16    0.17</time>
   <energy>
    <i name="e_fr_energy">     -2.57272764 </i>
    <i name="e_wo_entrp">     -2.55452553 </i>
    <i name="e_0_energy">     -2.56362658 </i>
   </energy>
  </scstep>
  <scstep>
   <time name="diag">    0.04    0.05</time>
   <time name="diis">    0.00    0.00</time>
   <time name="orth">    0.00    0.00</time>
   <time name="total">    0.09    0.09</time>
   <energy>
    <i name="e_fr_energy">     -2.57222532 </i>
    <i name="e_wo_entrp">     -2.55402321 </i>
    <i name="e_0_energy">     -2.56312427 </i>
   </energy>
  </scstep>
  <scstep>
   <time name="diag">    0.04    0.04</time>
   <time name="diis">    0.00    0.00</time>
   <time name="orth">    0.00    0.00</time>
   <time name="total">    0.09    0.09</time>
   <energy>
    <i name="e_fr_energy">     -2.57221342 </i>
    <i name="e_wo_entrp">     -2.55401131 </i>
    <i name="e_0_energy">     -2.56311237 </i>
   </energy>
  </scstep>
  <scstep>
   <time name="diag">    0.04    0.04</time>
   <time name="diis">    0.00    0.00</time>
   <time name="orth">    0.00    0.00</time>
   <time name="total">    0.09    0.09</time>
   <energy>
    <i name="e_fr_energy">     -2.57221271 </i>
    <i name="e_wo_entrp">     -2.55401060 </i>
    <i name="e_0_energy">     -2.56311165 </i>
   </energy>
  </scstep>
  <scstep>
   <time name="diag">    0.04    0.04</time>
   <time name="diis">    0.00    0.00</time>
   <time name="orth">    0.00    0.00</time>
   <time name="total">    0.09    0.09</time>
   <energy>
    <i name="e_fr_energy">     -2.57221279 </i>
    <i name="e_wo_entrp">     -2.55401068 </i>
    <i name="e_0_energy">     -2.56311173 </i>
   </energy>
  </scstep>
  <scstep>
   <time name="diag">    0.04    0.04</time>
   <time name="diis">    0.00    0.00</time>
   <time name="orth">    0.00    0.00</time>
   <time name="total">    0.08    0.09</time>
   <energy>
    <i name="alphaZ">     -1.00847372 </i>
    <i name="ewald">    -12.55905457 </i>
    <i name="hartreedc">     -0.03225706 </i>
    <i name="XCdc">    -73.00719904 </i>
    <i name="pawpsdc">     79.00870214 </i>
    <i name="pawaedc">     -3.99724264 </i>
    <i name="eentropy">     -0.01820211 </i>
    <i name="bandstr">     -1.27458468 </i>
    <i name="atom">     10.31609890 </i>
    <i name="e_fr_energy">     -2.57221280 </i>
    <i name="e_wo_entrp">     -2.55401068 </i>
    <i name="e_0_energy">     -2.56311174 </i>
   </energy>
  </scstep>
  <structure>
   <crystal>
    <varray name="basis" >
     <v>       4.17262200       0.00000000       0.00000000 </v>
     <v>       0.00000000       4.17262200       0.00000000 </v>
     <v>       0.00000000       0.00000000       4.17262200 </v>
    </varray>
    <i name="volume">     72.64858011 </i>
    <varray name="rec_basis" >
     <v>       0.23965746       0.00000000       0.00000000 </v>
     <v>       0.00000000       0.23965746       0.00000000 </v>
     <v>       0.00000000       0.00000000       0.23965746 </v>
    </varray>
   </crystal>
   <varray name="positions" >
    <v>       0.00000000       0.00000000       0.00000000 </v>
    <v>       0.50000000       0.50000000       0.50000000 </v>
   </varray>
  </structure>
  <varray name="forces" >
   <v>      -0.00000000      -0.00000000      -0.00000000 </v>
   <v>       0.00000000       0.00000000       0.00000000 </v>
  </varray>
  <varray name="stress" >
   <v>       1.25060333       0.00000000      -0.00000000 </v>
   <v>      -0.00000000       1.25060333       0.00000000 </v>
   <v>       0.00000000       0.00000000       1.25060333 </v>
  </varray>
  <energy>
   <i name="e_fr_energy">     -2.57221280 </i>
   <i name="e_wo_entrp">     -2.55401068 </i>
   <i name="e_0_energy">     -2.56311174 </i>
  </energy>
  <time name="totalsc">    0.91    0.96</time>
 </calculation>
 <calculation>
  <scstep>
   <time name="dav">    0.03    0.03</time>
   <time name="total">    0.07    0.07</time>
   <energy>
    <i name="alphaZ">     -1.00434671 </i>
    <i name="ewald">    -12.54189918 </i>
    <i name="hartreedc">     -0.03220995 </i>
    <i name="XCdc">    -73.00858350 </i>
    <i name="pawpsdc">     79.01401397 </i>
    <i name="pawaedc">     -4.00255991 </i>
    <i name="eentropy">     -0.01820211 </i>
    <i name="bandstr">     -1.29473527 </i>
    <i name="atom">     10.31609890 </i>
    <i name="e_fr_energy">     -2.57242376 </i>
    <i name="e_wo_entrp">     -2.55422165 </i>
    <i name="e_0_energy">     -2.56332271 </i>
   </energy>
  </scstep>
  <scstep>
   <time name="diag">    0.04    0.04</time>
   <time name="diis">    0.00    0.00</time>
   <time name="orth">    0.00    0.00</time>
   <time name="total">    0.09    0.09</time>
   <energy>
    <i name="e_fr_energy">     -2.57242361 </i>
    <i name="e_wo_entrp">     -2.55422149 </i>
    <i name="e_0_energy">     -2.56332255 </i>
   </energy>
  </scstep>
  <scstep>
   <time name="diag">    0.04    0.04</time>
   <time name="diis">    0.00    0.00</time>
   <time name="orth">    0.00    0.00</time>
   <time name="total">    0.09    0.09</time>
   <energy>
    <i name="e_fr_energy">     -2.57242315 </i>
    <i name="e_wo_entrp">     -2.55422104 </i>
    <i name="e_0_energy">     -2.56332209 </i>
   </energy>
  </scstep>
  <scstep>
   <time name="diag">    0.04    0.04</time>
   <time name="diis">    0.00    0.00</time>
   <time name="orth">    0.00    0.00</time>
   <time name="total">    0.09    0.09</time>
   <energy>
    <i name="e_fr_energy">     -2.57242317 </i>
    <i name="e_wo_entrp">     -2.55422106 </i>
    <i name="e_0_energy">     -2.56332211 </i>
   </energy>
  </scstep>
  <scstep>
   <time name="diag">    0.05    0.05</time>
   <time name="diis">    0.00    0.00</time>
   <time name="orth">    0.00    0.00</time>
   <time name="total">    0.09    0.10</time>
   <energy>
    <i name="e_fr_energy">     -2.57242322 </i>
    <i name="e_wo_entrp">     -2.55422111 </i>
    <i name="e_0_energy">     -2.56332216 </i>
   </energy>
  </scstep>
  <scstep>
   <time name="diag">    0.06    0.07</time>
   <time name="diis">    0.01    0.01</time>
   <time name="orth">    0.00    0.00</time>
   <time name="total">    0.12    0.13</time>
   <energy>
    <i name="alphaZ">     -1.00434671 </i>
    <i name="ewald">    -12.54189918 </i>
    <i name="hartreedc">     -0.03194719 </i>
    <i name="XCdc">    -73.00949398 </i>
    <i name="pawpsdc">     78.99585318 </i>
    <i name="pawaedc">     -3.98429770 </i>
    <i name="eentropy">     -0.01820211 </i>
    <i name="bandstr">     -1.29418844 </i>
    <i name="atom">     10.31609890 </i>
    <i name="e_fr_energy">     -2.57242322 </i>
    <i name="e_wo_entrp">     -2.55422111 </i>
    <i name="e_0_energy">     -2.56332217 </i>
   </energy>
  </scstep>
  <structure>
   <crystal>
    <varray name="basis" >
     <v>       4.17832951       0.00000000      -0.00000000 </v>
     <v>      -0.00000000       4.17832951       0.00000000 </v>
     <v>       0.00000000       0.00000000       4.17832951 </v>
    </varray>
    <i name="volume">     72.94710437 </i>
    <varray name="rec_basis" >
     <v>       0.23933010       0.00000000      -0.00000000 </v>
     <v>      -0.00000000       0.23933010      -0.00000000 </v>
     <v>       0.00000000      -0.00000000       0.23933010 </v>
    </varray>
   </crystal>
   <varray name="positions" >
    <v>      -0.00000000      -0.00000000      -0.00000000 </v>
    <v>       0.50000000       0.50000000       0.50000000 </v>
   </varray>
  </structure>
  <varray name="forces" >
   <v>       0.00000000       0.00000000       0.00000000 </v>
   <v>      -0.00000000      -0.00000000       0.00000000 </v>
  </varray>
  <varray name="stress" >
   <v>       1.01565951       0.00000000      -0.00000000 </v>
   <v>       0.00000000       1.01565951      -0.00000000 </v>
   <v>       0.00000000       0.00000000       1.01565951 </v>
  </varray>
  <energy>
   <i name="e_fr_energy">     -2.57242322 </i>
   <i name="e_wo_entrp">     -2.55422111 </i>
   <i name="e_0_energy">     -2.56332217 </i>
  </energy>
  <time name="totalsc">    0.65    0.68</time>
 </calculation>
 <calculation>
  <scstep>
   <time name="dav">    0.03    0.03</time>
   <time name="total">    0.07    0.07</time>
   <energy>
    <i name="alphaZ">     -0.99209998 </i>
    <i name="ewald">    -12.49071307 </i>
    <i name="hartreedc">     -0.03181656 </i>
    <i name="XCdc">    -73.01361493 </i>
    <i name="pawpsdc">     78.99599453 </i>
    <i name="pawaedc">     -3.98443869 </i>
    <i name="eentropy">     -0.01820211 </i>
    <i name="bandstr">     -1.35400707 </i>
    <i name="atom">     10.31609890 </i>
    <i name="e_fr_energy">     -2.57279897 </i>
    <i name="e_wo_entrp">     -2.55459686 </i>
    <i name="e_0_energy">     -2.56369791 </i>
   </energy>
  </scstep>
  <scstep>
   <time name="diag">    0.04    0.04</time>
   <time name="diis">    0.00    0.00</time>
   <time name="orth">    0.00    0.00</time>
   <time name="total">    0.09    0.09</time>
   <energy>
    <i name="e_fr_energy">     -2.57279961 </i>
    <i name="e_wo_entrp">     -2.55459749 </i>
    <i name="e_0_energy">     -2.56369855 </i>
   </energy>
  </scstep>
  <scstep>
   <time name="diag">    0.06    0.11</time>
   <time name="diis">    0.00    0.00</time>
   <time name="orth">    0.00    0.00</time>
   <time name="total">    0.08    0.17</time>
   <energy>
    <i name="e_fr_energy">     -2.57279826 </i>
    <i name="e_wo_entrp">     -2.55459615 </i>
    <i name="e_0_energy">     -2.56369721 </i>
   </energy>
  </scstep>
  <scstep>
   <time name="diag">    0.04    0.04</time>
   <time name="diis">    0.00    0.00</time>
   <time name="orth">    0.00    0.00</time>
   <time name="total">    0.09    0.09</time>
   <energy>
    <i name="e_fr_energy">     -2.57279828 </i>
    <i name="e_wo_entrp">     -2.55459617 </i>
    <i name="e_0_energy">     -2.56369723 </i>
   </energy>
  </scstep>
  <scstep>
   <time name="diag">    0.04    0.04</time>
   <time name="diis">    0.00    0.00</time>
   <time name="orth">    0.00    0.00</time>
   <time name="total">    0.09    0.09</time>
   <energy>
    <i name="e_fr_energy">     -2.57279845 </i>
    <i name="e_wo_entrp">     -2.55459634 </i>
    <i name="e_0_energy">     -2.56369739 </i>
   </energy>
  </scstep>
  <scstep>
   <time name="diag">    0.04    0.04</time>
   <time name="diis">    0.00    0.00</time>
   <time name="orth">    0.00    0.00</time>
   <time name="total">    0.08    0.09</time>
   <energy>
    <i name="e_fr_energy">     -2.57279847 </i>
    <i name="e_wo_entrp">     -2.55459635 </i>
    <i name="e_0_energy">     -2.56369741 </i>
   </energy>
  </scstep>
  <scstep>
   <time name="diag">    0.04    0.04</time>
   <time name="diis">    0.00    0.00</time>
   <time name="orth">    0.00    0.00</time>
   <time name="total">    0.08    0.09</time>
   <energy>
    <i name="alphaZ">     -0.99209998 </i>
    <i name="ewald">    -12.49071307 </i>
    <i name="hartreedc">     -0.03103010 </i>
    <i name="XCdc">    -73.01635432 </i>
    <i name="pawpsdc">     78.94151654 </i>
    <i name="pawaedc">     -3.92965142 </i>
    <i name="eentropy">     -0.01820211 </i>
    <i name="bandstr">     -1.35236289 </i>
    <i name="atom">     10.31609890 </i>
    <i name="e_fr_energy">     -2.57279846 </i>
    <i name="e_wo_entrp">     -2.55459634 </i>
    <i name="e_0_energy">     -2.56369740 </i>
   </energy>
  </scstep>
  <structure>
   <crystal>
    <varray name="basis" >
     <v>       4.19545202       0.00000000      -0.00000000 </v>
     <v>      -0.00000000       4.19545202       0.00000000 </v>
     <v>       0.00000000       0.00000000       4.19545202 </v>
    </varray>
    <i name="volume">     73.84758161 </i>
    <varray name="rec_basis" >
     <v>       0.23835334       0.00000000      -0.00000000 </v>
     <v>      -0.00000000       0.23835334      -0.00000000 </v>
     <v>       0.00000000      -0.00000000       0.23835334 </v>
    </varray>
   </crystal>
   <varray name="positions" >
    <v>      -0.00000000      -0.00000000      -0.00000000 </v>
    <v>       0.50000000       0.50000000       0.50000000 </v>
   </varray>
  </structure>
  <varray name="forces" >
   <v>      -0.00000000       0.00000000       0.00000000 </v>
   <v>       0.00000000      -0.00000000       0.00000000 </v>
  </varray>
  <varray name="stress" >
   <v>       0.33058299       0.00000000      -0.00000000 </v>
   <v>       0.00000000       0.33058299       0.00000000 </v>
   <v>      -0.00000000       0.00000000       0.33058299 </v>
  </varray>
  <energy>
   <i name="e_fr_energy">     -2.57279846 </i>
   <i name="e_wo_entrp">     -2.55459634 </i>
   <i name="e_0_energy">     -2.56369740 </i>
  </energy>
  <time name="totalsc">    0.68    0.80</time>
  <eigenvalues>
   <array>
    <dimension dim="1">band</dimension>
    <dimension dim="2">kpoint</dimension>
    <dimension dim="3">spin</dimension>
    <field>eigene</field>
    <field>occ</field>
    <set>
     <set comment="spin 1">
      <set comment="kpoint 1">
       <r>   -2.6951    1.0000 </r>
       <r>    5.1146    0.0000 </r>
       <r>    5.1146    0.0000 </r>
       <r>    5.4878    0.0000 </r>
       <r>    5.4878    0.0000 </r>
       <r>    5.4878    0.0000 </r>
       <r>    8.3121    0.0000 </r>
       <r>   12.3484    0.0000 </r>
      </set>
      <set comment="kpoint 2">
       <r>   -2.1489    1.0000 </r>
       <r>    2.0511    0.0000 </r>
       <r>    5.6468    0.0000 </r>
       <r>    5.9448    0.0000 </r>
       <r>    5.9448    0.0000 </r>
       <r>    7.5001    0.0000 </r>
       <r>    9.6434    0.0000 </r>
       <r>    9.6434    0.0000 </r>
      </set>
      <set comment="kpoint 3">
       <r>   -0.5364    1.0000 </r>
       <r>   -0.5364    1.0000 </r>
       <r>    7.2429    0.0000 </r>
       <r>    7.2429    0.0000 </r>
       <r>    7.3251    0.0000 </r>
       <r>    7.3251    0.0000 </r>
       <r>    7.3251    0.0000 </r>
       <r>    7.3251    0.0000 </r>
      </set>
      <set comment="kpoint 4">
       <r>   -1.6070    1.0000 </r>
       <r>    2.3263    0.0000 </r>
       <r>    2.8587    0.0000 </r>
       <r>    6.4008    0.0000 </r>
       <r>    6.6067    0.0000 </r>
       <r>    7.1120    0.0000 </r>
       <r>    9.8550    0.0000 </r>
       <r>   10.2911    0.0000 </r>
      </set>
      <set comment="kpoint 5">
       <r>   -0.0090    1.0000 </r>
       <r>   -0.0090    1.0000 </r>
       <r>    4.1339    0.0000 </r>
       <r>    4.1339    0.0000 </r>
       <r>    7.7733    0.0000 </r>
       <r>    7.7733    0.0000 </r>
       <r>    8.7070    0.0000 </r>
       <r>    8.7070    0.0000 </r>
      </set>
      <set comment="kpoint 6">
       <r>    1.3432    0.0000 </r>
       <r>    1.3432    0.0000 </r>
       <r>    1.8140    0.0000 </r>
       <r>    1.8140    0.0000 </r>
       <r>    8.8124    0.0000 </r>
       <r>    8.8124    0.0000 </r>
       <r>    9.6112    0.0000 </r>
       <r>    9.6112    0.0000 </r>
      </set>
      <set comment="kpoint 7">
       <r>   -1.0696    1.0000 </r>
       <r>    2.8185    0.0000 </r>
       <r>    2.8185    0.0000 </r>
       <r>    3.8317    0.0000 </r>
       <r>    6.7707    0.0000 </r>
       <r>    6.7707    0.0000 </r>
       <r>    8.1497    0.0000 </r>
       <r>   10.7886    0.0000 </r>
      </set>
      <set comment="kpoint 8">
       <r>    0.5123    0.2917 </r>
       <r>    0.5123    0.2917 </r>
       <r>    4.2985    0.0000 </r>
       <r>    4.2985    0.0000 </r>
       <r>    5.0721    0.0000 </r>
       <r>    5.0721    0.0000 </r>
       <r>    8.8628    0.0000 </r>
       <r>    8.8628    0.0000 </r>
      </set>
      <set comment="kpoint 9">
       <r>    1.8336    0.0000 </r>
       <r>    1.8336    0.0000 </r>
       <r>    2.3280    0.0000 </r>
       <r>    2.3280    0.0000 </r>
       <r>    5.7750    0.0000 </r>
       <r>    5.7750    0.0000 </r>
       <r>    6.8999    0.0000 </r>
       <r>    6.8999    0.0000 </r>
      </set>
      <set comment="kpoint 10">
       <r>    3.3089    0.0000 </r>
       <r>    3.3089    0.0000 </r>
       <r>    3.3089    0.0000 </r>
       <r>    3.3089    0.0000 </r>
       <r>    3.3089    0.0000 </r>
       <r>    3.3089    0.0000 </r>
       <r>    4.9773    0.0000 </r>
       <r>    4.9773    0.0000 </r>
      </set>
     </set>
    </set>
   </array>
  </eigenvalues>
  <separator name="orbital magnetization" >
   <v name="MAGDIPOLOUT">      0.00000000      0.00000000      0.00000000</v>
  </separator>
  <dos>
   <i name="efermi">      0.47355095 </i>
   <total>
    <array>
     <dimension dim="1">gridpoints</dimension>
     <dimension dim="2">spin</dimension>
     <field>energy</field>
     <field>total</field>
     <field>integrated</field>
     <set>
      <set comment="spin 1">
       <r>    -3.6951     0.0000     0.0000 </r>
       <r>    -3.6383     0.0000     0.0000 </r>
       <r>    -3.5815     0.0000     0.0000 </r>
       <r>    -3.5247     0.0000     0.0000 </r>
       <r>    -3.4678     0.0000     0.0000 </r>
       <r>    -3.4110     0.0000     0.0000 </r>
       <r>    -3.3542     0.0000     0.0000 </r>
       <r>    -3.2974     0.0000     0.0000 </r>
       <r>    -3.2406     0.0000     0.0000 </r>
       <r>    -3.1838     0.0000     0.0000 </r>
       <r>    -3.1270     0.0000     0.0000 </r>
       <r>    -3.0702     0.0000     0.0000 </r>
       <r>    -3.0134     0.0000     0.0000 </r>
       <r>    -2.9565     0.0001     0.0000 </r>
       <r>    -2.8997     0.0010     0.0001 </r>
       <r>    -2.8429     0.0090     0.0006 </r>
       <r>    -2.7861     0.0444     0.0031 </r>
       <r>    -2.7293     0.1184     0.0098 </r>
       <r>    -2.6725     0.1711     0.0195 </r>
       <r>    -2.6157     0.1342     0.0272 </r>
       <r>    -2.5589     0.0570     0.0304 </r>
       <r>    -2.5020     0.0131     0.0312 </r>
       <r>    -2.4452     0.0017     0.0312 </r>
       <r>    -2.3884     0.0012     0.0313 </r>
       <r>    -2.3316     0.0149     0.0322 </r>
       <r>    -2.2748     0.1076     0.0383 </r>
       <r>    -2.2180     0.4182     0.0620 </r>
       <r>    -2.1612     0.8804     0.1121 </r>
       <r>    -2.1044     1.0051     0.1692 </r>
       <r>    -2.0476     0.6224     0.2045 </r>
       <r>    -1.9907     0.2088     0.2164 </r>
       <r>    -1.9339     0.0379     0.2185 </r>
       <r>    -1.8771     0.0041     0.2188 </r>
       <r>    -1.8203     0.0082     0.2192 </r>
       <r>    -1.7635     0.0802     0.2238 </r>
       <r>    -1.7067     0.4344     0.2485 </r>
       <r>    -1.6499     1.2724     0.3208 </r>
       <r>    -1.5931     2.0195     0.4355 </r>
       <r>    -1.5362     1.7387     0.5343 </r>
       <r>    -1.4794     0.8117     0.5804 </r>
       <r>    -1.4226     0.2052     0.5920 </r>
       <r>    -1.3658     0.0281     0.5936 </r>
       <r>    -1.3090     0.0036     0.5938 </r>
       <r>    -1.2522     0.0201     0.5950 </r>
       <r>    -1.1954     0.1438     0.6031 </r>
       <r>    -1.1386     0.5587     0.6349 </r>
       <r>    -1.0818     1.1748     0.7016 </r>
       <r>    -1.0249     1.3397     0.7777 </r>
       <r>    -0.9681     0.8287     0.8248 </r>
       <r>    -0.9113     0.2777     0.8406 </r>
       <r>    -0.8545     0.0503     0.8435 </r>
       <r>    -0.7977     0.0053     0.8438 </r>
       <r>    -0.7409     0.0062     0.8441 </r>
       <r>    -0.6841     0.0543     0.8472 </r>
       <r>    -0.6273     0.2672     0.8624 </r>
       <r>    -0.5704     0.7115     0.9028 </r>
       <r>    -0.5136     1.0269     0.9611 </r>
       <r>    -0.4568     0.8041     1.0068 </r>
       <r>    -0.4000     0.3413     1.0262 </r>
       <r>    -0.3432     0.0784     1.0307 </r>
       <r>    -0.2864     0.0103     1.0312 </r>
       <r>    -0.2296     0.0120     1.0319 </r>
       <r>    -0.1728     0.1237     1.0390 </r>
       <r>    -0.1160     0.7246     1.0801 </r>
       <r>    -0.0591     2.2954     1.2105 </r>
       <r>    -0.0023     3.9396     1.4343 </r>
       <r>     0.0545     3.6675     1.6427 </r>
       <r>     0.1113     1.8516     1.7479 </r>
       <r>     0.1681     0.5062     1.7767 </r>
       <r>     0.2249     0.0751     1.7809 </r>
       <r>     0.2817     0.0130     1.7817 </r>
       <r>     0.3385     0.0852     1.7865 </r>
       <r>     0.3954     0.5549     1.8180 </r>
       <r>     0.4522     1.9588     1.9293 </r>
       <r>     0.5090     3.7447     2.1420 </r>
       <r>     0.5658     3.8826     2.3626 </r>
       <r>     0.6226     2.1834     2.4867 </r>
       <r>     0.6794     0.6652     2.5244 </r>
       <r>     0.7362     0.1095     2.5307 </r>
       <r>     0.7930     0.0097     2.5312 </r>
       <r>     0.8498     0.0005     2.5312 </r>
       <r>     0.9067     0.0000     2.5312 </r>
       <r>     0.9635     0.0000     2.5313 </r>
       <r>     1.0203     0.0000     2.5313 </r>
       <r>     1.0771     0.0003     2.5313 </r>
       <r>     1.1339     0.0048     2.5315 </r>
       <r>     1.1907     0.0461     2.5342 </r>
       <r>     1.2475     0.2391     2.5477 </r>
       <r>     1.3043     0.6707     2.5858 </r>
       <r>     1.3612     1.0194     2.6438 </r>
       <r>     1.4180     0.8405     2.6915 </r>
       <r>     1.4748     0.3758     2.7129 </r>
       <r>     1.5316     0.0911     2.7180 </r>
       <r>     1.5884     0.0158     2.7189 </r>
       <r>     1.6452     0.0503     2.7218 </r>
       <r>     1.7020     0.3407     2.7411 </r>
       <r>     1.7588     1.2825     2.8140 </r>
       <r>     1.8156     2.6444     2.9642 </r>
       <r>     1.8725     3.0021     3.1348 </r>
       <r>     1.9293     1.9669     3.2465 </r>
       <r>     1.9861     1.0747     3.3076 </r>
       <r>     2.0429     1.0228     3.3657 </r>
       <r>     2.0997     1.0106     3.4231 </r>
       <r>     2.1565     0.6836     3.4619 </r>
       <r>     2.2133     0.7939     3.5070 </r>
       <r>     2.2701     2.0972     3.6262 </r>
       <r>     2.3270     3.8163     3.8430 </r>
       <r>     2.3838     3.8205     4.0601 </r>
       <r>     2.4406     2.0761     4.1780 </r>
       <r>     2.4974     0.6112     4.2127 </r>
       <r>     2.5542     0.0981     4.2183 </r>
       <r>     2.6110     0.0237     4.2196 </r>
       <r>     2.6678     0.1525     4.2283 </r>
       <r>     2.7246     0.8332     4.2757 </r>
       <r>     2.7814     2.5437     4.4202 </r>
       <r>     2.8383     4.3699     4.6684 </r>
       <r>     2.8951     4.2535     4.9101 </r>
       <r>     2.9519     2.3522     5.0437 </r>
       <r>     3.0087     0.7373     5.0856 </r>
       <r>     3.0655     0.1310     5.0930 </r>
       <r>     3.1223     0.0256     5.0945 </r>
       <r>     3.1791     0.0968     5.1000 </r>
       <r>     3.2359     0.3893     5.1221 </r>
       <r>     3.2928     0.8538     5.1706 </r>
       <r>     3.3496     1.0154     5.2283 </r>
       <r>     3.4064     0.6550     5.2655 </r>
       <r>     3.4632     0.2290     5.2785 </r>
       <r>     3.5200     0.0433     5.2810 </r>
       <r>     3.5768     0.0051     5.2813 </r>
       <r>     3.6336     0.0107     5.2819 </r>
       <r>     3.6904     0.0893     5.2870 </r>
       <r>     3.7472     0.4102     5.3103 </r>
       <r>     3.8041     1.0194     5.3682 </r>
       <r>     3.8609     1.3741     5.4462 </r>
       <r>     3.9177     1.0177     5.5041 </r>
       <r>     3.9745     0.5426     5.5349 </r>
       <r>     4.0313     0.8960     5.5858 </r>
       <r>     4.0881     2.4744     5.7264 </r>
       <r>     4.1449     4.1828     5.9640 </r>
       <r>     4.2017     4.4886     6.2190 </r>
       <r>     4.2586     4.3588     6.4666 </r>
       <r>     4.3154     4.5151     6.7231 </r>
       <r>     4.3722     3.4556     6.9195 </r>
       <r>     4.4290     1.5388     7.0069 </r>
       <r>     4.4858     0.3757     7.0282 </r>
       <r>     4.5426     0.0496     7.0310 </r>
       <r>     4.5994     0.0035     7.0312 </r>
       <r>     4.6562     0.0001     7.0313 </r>
       <r>     4.7130     0.0001     7.0313 </r>
       <r>     4.7699     0.0019     7.0314 </r>
       <r>     4.8267     0.0197     7.0325 </r>
       <r>     4.8835     0.1308     7.0399 </r>
       <r>     4.9403     0.5963     7.0738 </r>
       <r>     4.9971     1.8807     7.1806 </r>
       <r>     5.0539     3.7904     7.3960 </r>
       <r>     5.1107     4.5119     7.6523 </r>
       <r>     5.1675     3.0460     7.8254 </r>
       <r>     5.2244     1.1505     7.8907 </r>
       <r>     5.2812     0.2455     7.9047 </r>
       <r>     5.3380     0.0540     7.9077 </r>
       <r>     5.3948     0.1297     7.9151 </r>
       <r>     5.4516     0.3556     7.9353 </r>
       <r>     5.5084     0.5861     7.9686 </r>
       <r>     5.5652     0.7469     8.0110 </r>
       <r>     5.6220     1.0571     8.0711 </r>
       <r>     5.6788     1.5447     8.1588 </r>
       <r>     5.7357     2.0776     8.2769 </r>
       <r>     5.7925     2.4099     8.4138 </r>
       <r>     5.8493     2.2255     8.5402 </r>
       <r>     5.9061     2.1083     8.6600 </r>
       <r>     5.9629     2.2241     8.7864 </r>
       <r>     6.0197     1.7030     8.8831 </r>
       <r>     6.0765     0.7511     8.9258 </r>
       <r>     6.1333     0.1816     8.9361 </r>
       <r>     6.1902     0.0326     8.9379 </r>
       <r>     6.2470     0.0897     8.9430 </r>
       <r>     6.3038     0.4632     8.9694 </r>
       <r>     6.3606     1.3196     9.0443 </r>
       <r>     6.4174     2.0558     9.1611 </r>
       <r>     6.4742     1.8777     9.2678 </r>
       <r>     6.5310     1.5121     9.3537 </r>
       <r>     6.5878     1.8959     9.4614 </r>
       <r>     6.6446     2.3543     9.5952 </r>
       <r>     6.7015     2.4875     9.7365 </r>
       <r>     6.7583     2.9672     9.9051 </r>
       <r>     6.8151     3.3878    10.0975 </r>
       <r>     6.8719     3.1988    10.2793 </r>
       <r>     6.9287     2.6487    10.4297 </r>
       <r>     6.9855     1.8244    10.5334 </r>
       <r>     7.0423     1.4458    10.6155 </r>
       <r>     7.0991     1.9493    10.7263 </r>
       <r>     7.1560     2.3710    10.8610 </r>
       <r>     7.2128     2.3145    10.9924 </r>
       <r>     7.2696     2.5115    11.1351 </r>
       <r>     7.3264     2.7926    11.2938 </r>
       <r>     7.3832     2.3559    11.4276 </r>
       <r>     7.4400     1.5734    11.5170 </r>
       <r>     7.4968     1.2390    11.5874 </r>
       <r>     7.5536     1.0288    11.6459 </r>
       <r>     7.6104     0.6772    11.6843 </r>
       <r>     7.6673     0.9079    11.7359 </r>
       <r>     7.7241     2.3539    11.8696 </r>
       <r>     7.7809     3.9565    12.0944 </r>
       <r>     7.8377     3.6453    12.3015 </r>
       <r>     7.8945     1.8230    12.4051 </r>
       <r>     7.9513     0.5037    12.4337 </r>
       <r>     8.0081     0.1606    12.4428 </r>
       <r>     8.0649     0.4134    12.4663 </r>
       <r>     8.1218     1.0183    12.5242 </r>
       <r>     8.1786     1.3877    12.6030 </r>
       <r>     8.2354     1.0671    12.6636 </r>
       <r>     8.2922     0.5378    12.6942 </r>
       <r>     8.3490     0.2566    12.7087 </r>
       <r>     8.4058     0.1247    12.7158 </r>
       <r>     8.4626     0.0459    12.7184 </r>
       <r>     8.5194     0.0574    12.7217 </r>
       <r>     8.5762     0.3751    12.7430 </r>
       <r>     8.6331     1.5508    12.8311 </r>
       <r>     8.6899     3.5916    13.0352 </r>
       <r>     8.7467     5.0839    13.3240 </r>
       <r>     8.8035     5.5454    13.6390 </r>
       <r>     8.8603     5.6963    13.9626 </r>
       <r>     8.9171     4.6394    14.2262 </r>
       <r>     8.9739     2.3649    14.3606 </r>
       <r>     9.0307     0.6849    14.3995 </r>
       <r>     9.0876     0.1093    14.4057 </r>
       <r>     9.1444     0.0095    14.4062 </r>
       <r>     9.2012     0.0004    14.4062 </r>
       <r>     9.2580     0.0000    14.4063 </r>
       <r>     9.3148     0.0001    14.4063 </r>
       <r>     9.3716     0.0015    14.4063 </r>
       <r>     9.4284     0.0223    14.4076 </r>
       <r>     9.4852     0.1833    14.4180 </r>
       <r>     9.5420     0.8359    14.4655 </r>
       <r>     9.5989     2.1260    14.5863 </r>
       <r>     9.6557     3.0302    14.7584 </r>
       <r>     9.7125     2.5123    14.9012 </r>
       <r>     9.7693     1.6454    14.9947 </r>
       <r>     9.8261     1.7632    15.0948 </r>
       <r>     9.8829     2.0937    15.2138 </r>
       <r>     9.9397     1.5270    15.3005 </r>
       <r>     9.9965     0.6118    15.3353 </r>
       <r>    10.0534     0.1352    15.3430 </r>
       <r>    10.1102     0.0477    15.3457 </r>
       <r>    10.1670     0.2278    15.3586 </r>
       <r>    10.2238     0.8648    15.4077 </r>
       <r>    10.2806     1.7851    15.5092 </r>
       <r>    10.3374     1.9984    15.6227 </r>
       <r>    10.3942     1.2135    15.6916 </r>
       <r>    10.4510     0.3993    15.7143 </r>
       <r>    10.5078     0.0712    15.7184 </r>
       <r>    10.5647     0.0100    15.7189 </r>
       <r>    10.6215     0.0369    15.7210 </r>
       <r>    10.6783     0.2217    15.7336 </r>
       <r>    10.7351     0.7278    15.7750 </r>
       <r>    10.7919     1.2942    15.8485 </r>
       <r>    10.8487     1.2483    15.9194 </r>
       <r>    10.9055     0.6530    15.9565 </r>
       <r>    10.9623     0.1850    15.9670 </r>
       <r>    11.0192     0.0283    15.9686 </r>
       <r>    11.0760     0.0023    15.9687 </r>
       <r>    11.1328     0.0001    15.9687 </r>
       <r>    11.1896     0.0000    15.9687 </r>
       <r>    11.2464     0.0000    15.9687 </r>
       <r>    11.3032     0.0000    15.9687 </r>
       <r>    11.3600     0.0000    15.9688 </r>
       <r>    11.4168     0.0000    15.9688 </r>
       <r>    11.4736     0.0000    15.9688 </r>
       <r>    11.5305     0.0000    15.9688 </r>
       <r>    11.5873     0.0000    15.9688 </r>
       <r>    11.6441     0.0000    15.9688 </r>
       <r>    11.7009     0.0000    15.9688 </r>
       <r>    11.7577     0.0000    15.9688 </r>
       <r>    11.8145     0.0000    15.9688 </r>
       <r>    11.8713     0.0000    15.9688 </r>
       <r>    11.9281     0.0000    15.9688 </r>
       <r>    11.9850     0.0000    15.9688 </r>
       <r>    12.0418     0.0000    15.9688 </r>
       <r>    12.0986     0.0001    15.9688 </r>
       <r>    12.1554     0.0016    15.9688 </r>
       <r>    12.2122     0.0131    15.9696 </r>
       <r>    12.2690     0.0570    15.9728 </r>
       <r>    12.3258     0.1342    15.9805 </r>
       <r>    12.3826     0.1711    15.9902 </r>
       <r>    12.4394     0.1184    15.9969 </r>
       <r>    12.4963     0.0444    15.9994 </r>
       <r>    12.5531     0.0090    15.9999 </r>
       <r>    12.6099     0.0010    16.0000 </r>
       <r>    12.6667     0.0001    16.0000 </r>
       <r>    12.7235     0.0000    16.0000 </r>
       <r>    12.7803     0.0000    16.0000 </r>
       <r>    12.8371     0.0000    16.0000 </r>
       <r>    12.8939     0.0000    16.0000 </r>
       <r>    12.9508     0.0000    16.0000 </r>
       <r>    13.0076     0.0000    16.0000 </r>
       <r>    13.0644     0.0000    16.0000 </r>
       <r>    13.1212     0.0000    16.0000 </r>
       <r>    13.1780     0.0000    16.0000 </r>
       <r>    13.2348     0.0000    16.0000 </r>
       <r>    13.2916     0.0000    16.0000 </r>
       <r>    13.3484     0.0000    16.0000 </r>
      </set>
     </set>
    </array>
   </total>
  </dos>
 </calculation>
 <structure name="finalpos" >
  <crystal>
   <varray name="basis" >
    <v>       4.19545202       0.00000000      -0.00000000 </v>
    <v>      -0.00000000       4.19545202       0.00000000 </v>
    <v>       0.00000000       0.00000000       4.19545202 </v>
   </varray>
   <i name="volume">     73.84758161 </i>
   <varray name="rec_basis" >
    <v>       0.23835334       0.00000000      -0.00000000 </v>
    <v>      -0.00000000       0.23835334      -0.00000000 </v>
    <v>       0.00000000      -0.00000000       0.23835334 </v>
   </varray>
  </crystal>
  <varray name="positions" >
   <v>      -0.00000000      -0.00000000      -0.00000000 </v>
   <v>       0.50000000       0.50000000       0.50000000 </v>
  </varray>
 </structure>
</modeling>
