 268 268   0   0
  0.2624791E+02  0.1259686E-08  0.1781465E-08  0.4433071E-08  0.5000000E-15
  1.000000000000000E-004
  CAR 
 unknown system                          
      6.15008900    -16.18993427  301      1.60881628      1.00000000
    -16.190  0.0000E+00  0.0000E+00
    -16.115  0.0000E+00  0.0000E+00
    -16.041  0.0000E+00  0.0000E+00
    -15.967  0.0000E+00  0.0000E+00
    -15.892  0.0000E+00  0.0000E+00
    -15.818  0.0000E+00  0.0000E+00
    -15.743  0.0000E+00  0.0000E+00
    -15.669  0.0000E+00  0.0000E+00
    -15.594  0.0000E+00  0.0000E+00
    -15.520  0.0000E+00  0.0000E+00
    -15.445  0.0000E+00  0.0000E+00
    -15.371  0.0000E+00  0.0000E+00
    -15.296  0.0000E+00  0.0000E+00
    -15.222  0.1730E-12  0.1288E-13
    -15.147  0.3371E-01  0.2510E-02
    -15.073  0.1427E+00  0.1314E-01
    -14.998  0.2323E+00  0.3053E-01
    -14.924  0.3609E+00  0.5819E-01
    -14.850  0.2562E+00  0.7751E-01
    -14.775  0.6556E-01  0.8255E-01
    -14.701  0.1344E+00  0.9256E-01
    -14.626  0.7353E-01  0.9807E-01
    -14.552  0.2792E+00  0.1189E+00
    -14.477  0.3858E+00  0.1478E+00
    -14.403  0.1297E+00  0.1577E+00
    -14.328  0.2840E-01  0.1600E+00
    -14.254  0.0000E+00  0.1600E+00
    -14.179  0.0000E+00  0.1600E+00
    -14.105  0.0000E+00  0.1600E+00
    -14.030  0.0000E+00  0.1600E+00
    -13.956  0.0000E+00  0.1600E+00
    -13.881  0.0000E+00  0.1600E+00
    -13.807  0.0000E+00  0.1600E+00
    -13.733  0.0000E+00  0.1600E+00
    -13.658  0.0000E+00  0.1600E+00
    -13.584  0.0000E+00  0.1600E+00
    -13.509  0.0000E+00  0.1600E+00
    -13.435  0.0000E+00  0.1600E+00
    -13.360  0.0000E+00  0.1600E+00
    -13.286  0.0000E+00  0.1600E+00
    -13.211  0.0000E+00  0.1600E+00
    -13.137  0.0000E+00  0.1600E+00
    -13.062  0.0000E+00  0.1600E+00
    -12.988  0.0000E+00  0.1600E+00
    -12.913  0.0000E+00  0.1600E+00
    -12.839  0.0000E+00  0.1600E+00
    -12.764  0.0000E+00  0.1600E+00
    -12.690  0.0000E+00  0.1600E+00
    -12.616  0.0000E+00  0.1600E+00
    -12.541  0.0000E+00  0.1600E+00
    -12.467  0.0000E+00  0.1600E+00
    -12.392  0.0000E+00  0.1600E+00
    -12.318  0.0000E+00  0.1600E+00
    -12.243  0.0000E+00  0.1600E+00
    -12.169  0.0000E+00  0.1600E+00
    -12.094  0.0000E+00  0.1600E+00
    -12.020  0.0000E+00  0.1600E+00
    -11.945  0.0000E+00  0.1600E+00
    -11.871  0.0000E+00  0.1600E+00
    -11.796  0.0000E+00  0.1600E+00
    -11.722  0.0000E+00  0.1600E+00
    -11.647  0.0000E+00  0.1600E+00
    -11.573  0.0000E+00  0.1600E+00
    -11.499  0.0000E+00  0.1600E+00
    -11.424  0.0000E+00  0.1600E+00
    -11.350  0.0000E+00  0.1600E+00
    -11.275  0.0000E+00  0.1600E+00
    -11.201  0.0000E+00  0.1600E+00
    -11.126  0.0000E+00  0.1600E+00
    -11.052  0.0000E+00  0.1600E+00
    -10.977  0.0000E+00  0.1600E+00
    -10.903  0.0000E+00  0.1600E+00
    -10.828  0.0000E+00  0.1600E+00
    -10.754  0.0000E+00  0.1600E+00
    -10.679  0.0000E+00  0.1600E+00
    -10.605  0.0000E+00  0.1600E+00
    -10.530  0.0000E+00  0.1600E+00
    -10.456  0.0000E+00  0.1600E+00
    -10.382  0.0000E+00  0.1600E+00
    -10.307  0.0000E+00  0.1600E+00
    -10.233  0.0000E+00  0.1600E+00
    -10.158  0.0000E+00  0.1600E+00
    -10.084  0.0000E+00  0.1600E+00
    -10.009  0.0000E+00  0.1600E+00
     -9.935  0.0000E+00  0.1600E+00
     -9.860  0.0000E+00  0.1600E+00
     -9.786  0.0000E+00  0.1600E+00
     -9.711  0.0000E+00  0.1600E+00
     -9.637  0.0000E+00  0.1600E+00
     -9.562  0.0000E+00  0.1600E+00
     -9.488  0.0000E+00  0.1600E+00
     -9.413  0.0000E+00  0.1600E+00
     -9.339  0.0000E+00  0.1600E+00
     -9.265  0.0000E+00  0.1600E+00
     -9.190  0.0000E+00  0.1600E+00
     -9.116  0.0000E+00  0.1600E+00
     -9.041  0.0000E+00  0.1600E+00
     -8.967  0.0000E+00  0.1600E+00
     -8.892  0.0000E+00  0.1600E+00
     -8.818  0.0000E+00  0.1600E+00
     -8.743  0.0000E+00  0.1600E+00
     -8.669  0.0000E+00  0.1600E+00
     -8.594  0.0000E+00  0.1600E+00
     -8.520  0.0000E+00  0.1600E+00
     -8.445  0.0000E+00  0.1600E+00
     -8.371  0.0000E+00  0.1600E+00
     -8.296  0.0000E+00  0.1600E+00
     -8.222  0.0000E+00  0.1600E+00
     -8.148  0.0000E+00  0.1600E+00
     -8.073  0.0000E+00  0.1600E+00
     -7.999  0.0000E+00  0.1600E+00
     -7.924  0.0000E+00  0.1600E+00
     -7.850  0.0000E+00  0.1600E+00
     -7.775  0.0000E+00  0.1600E+00
     -7.701  0.0000E+00  0.1600E+00
     -7.626  0.0000E+00  0.1600E+00
     -7.552  0.0000E+00  0.1600E+00
     -7.477  0.0000E+00  0.1600E+00
     -7.403  0.0000E+00  0.1600E+00
     -7.328  0.0000E+00  0.1600E+00
     -7.254  0.0000E+00  0.1600E+00
     -7.179  0.0000E+00  0.1600E+00
     -7.105  0.0000E+00  0.1600E+00
     -7.031  0.0000E+00  0.1600E+00
     -6.956  0.0000E+00  0.1600E+00
     -6.882  0.0000E+00  0.1600E+00
     -6.807  0.0000E+00  0.1600E+00
     -6.733  0.0000E+00  0.1600E+00
     -6.658  0.0000E+00  0.1600E+00
     -6.584  0.0000E+00  0.1600E+00
     -6.509  0.0000E+00  0.1600E+00
     -6.435  0.0000E+00  0.1600E+00
     -6.360  0.0000E+00  0.1600E+00
     -6.286  0.0000E+00  0.1600E+00
     -6.211  0.0000E+00  0.1600E+00
     -6.137  0.0000E+00  0.1600E+00
     -6.062  0.0000E+00  0.1600E+00
     -5.988  0.0000E+00  0.1600E+00
     -5.914  0.0000E+00  0.1600E+00
     -5.839  0.0000E+00  0.1600E+00
     -5.765  0.0000E+00  0.1600E+00
     -5.690  0.0000E+00  0.1600E+00
     -5.616  0.0000E+00  0.1600E+00
     -5.541  0.0000E+00  0.1600E+00
     -5.467  0.0000E+00  0.1600E+00
     -5.392  0.0000E+00  0.1600E+00
     -5.318  0.0000E+00  0.1600E+00
     -5.243  0.0000E+00  0.1600E+00
     -5.169  0.0000E+00  0.1600E+00
     -5.094  0.0000E+00  0.1600E+00
     -5.020  0.0000E+00  0.1600E+00
     -4.945  0.0000E+00  0.1600E+00
     -4.871  0.0000E+00  0.1600E+00
     -4.797  0.0000E+00  0.1600E+00
     -4.722  0.0000E+00  0.1600E+00
     -4.648  0.0000E+00  0.1600E+00
     -4.573  0.0000E+00  0.1600E+00
     -4.499  0.0000E+00  0.1600E+00
     -4.424  0.0000E+00  0.1600E+00
     -4.350  0.0000E+00  0.1600E+00
     -4.275  0.0000E+00  0.1600E+00
     -4.201  0.0000E+00  0.1600E+00
     -4.126  0.0000E+00  0.1600E+00
     -4.052  0.0000E+00  0.1600E+00
     -3.977  0.1664E-01  0.1612E+00
     -3.903  0.8610E-01  0.1677E+00
     -3.828  0.1509E+00  0.1789E+00
     -3.754  0.3027E+00  0.2015E+00
     -3.680  0.2445E+00  0.2200E+00
     -3.605  0.2743E+00  0.2409E+00
     -3.531  0.3653E+00  0.2684E+00
     -3.456  0.3731E+00  0.2965E+00
     -3.382  0.2883E+00  0.3181E+00
     -3.307  0.2113E+00  0.3339E+00
     -3.233  0.2372E+00  0.3518E+00
     -3.158  0.2417E+00  0.3701E+00
     -3.084  0.2133E+00  0.3864E+00
     -3.009  0.1499E-01  0.3875E+00
     -2.935  0.4272E-01  0.3907E+00
     -2.860  0.9051E-01  0.3974E+00
     -2.786  0.3357E-01  0.4000E+00
     -2.711  0.0000E+00  0.4000E+00
     -2.637  0.0000E+00  0.4000E+00
     -2.563  0.0000E+00  0.4000E+00
     -2.488  0.0000E+00  0.4000E+00
     -2.414  0.0000E+00  0.4000E+00
     -2.339  0.0000E+00  0.4000E+00
     -2.265  0.0000E+00  0.4000E+00
     -2.190  0.0000E+00  0.4000E+00
     -2.116  0.0000E+00  0.4000E+00
     -2.041  0.0000E+00  0.4000E+00
     -1.967  0.0000E+00  0.4000E+00
     -1.892  0.0000E+00  0.4000E+00
     -1.818  0.0000E+00  0.4000E+00
     -1.743  0.0000E+00  0.4000E+00
     -1.669  0.2115E-15  0.4000E+00
     -1.594  0.1676E-01  0.4012E+00
     -1.520  0.0000E+00  0.4012E+00
     -1.446  0.1619E-01  0.4025E+00
     -1.371  0.0000E+00  0.4025E+00
     -1.297  0.1050E-09  0.4025E+00
     -1.222  0.1679E-01  0.4037E+00
     -1.148  0.6445E-01  0.4085E+00
     -1.073  0.7977E-01  0.4147E+00
     -0.999  0.1157E+00  0.4235E+00
     -0.924  0.9659E-01  0.4307E+00
     -0.850  0.1209E+00  0.4398E+00
     -0.775  0.1955E+00  0.4547E+00
     -0.701  0.1250E+00  0.4641E+00
     -0.626  0.4022E+00  0.4941E+00
     -0.552  0.4145E+00  0.5254E+00
     -0.477  0.4097E+00  0.5560E+00
     -0.403  0.4318E+00  0.5884E+00
     -0.329  0.3429E+00  0.6142E+00
     -0.254  0.3979E+00  0.6442E+00
     -0.180  0.3055E+00  0.6674E+00
     -0.105  0.1849E+00  0.6812E+00
     -0.031  0.0000E+00  0.6813E+00
      0.044  0.0000E+00  0.6813E+00
      0.118  0.0000E+00  0.6813E+00
      0.193  0.2633E-03  0.6813E+00
      0.267  0.1118E+00  0.6896E+00
      0.342  0.9380E-01  0.6967E+00
      0.416  0.1078E-01  0.6975E+00
      0.491  0.3773E-01  0.7003E+00
      0.565  0.2876E-01  0.7025E+00
      0.640  0.2292E-12  0.7025E+00
      0.714  0.4162E-01  0.7056E+00
      0.788  0.1959E+00  0.7202E+00
      0.863  0.9174E-01  0.7275E+00
      0.937  0.5276E-01  0.7314E+00
      1.012  0.9816E-01  0.7387E+00
      1.086  0.2416E-06  0.7388E+00
      1.161  0.4972E-01  0.7425E+00
      1.235  0.1131E+00  0.7509E+00
      1.310  0.1044E+00  0.7587E+00
      1.384  0.2099E-02  0.7589E+00
      1.459  0.6505E-01  0.7637E+00
      1.533  0.1670E-01  0.7650E+00
      1.608  0.1305E+00  0.7747E+00
      1.682  0.6852E-01  0.7800E+00
      1.757  0.0000E+00  0.7800E+00
      1.831  0.3029E-02  0.7802E+00
      1.905  0.6411E-01  0.7850E+00
      1.980  0.8935E-02  0.7857E+00
      2.054  0.1401E+00  0.7961E+00
      2.129  0.1017E+00  0.8037E+00
      2.203  0.9994E-01  0.8112E+00
      2.278  0.2153E-06  0.8113E+00
      2.352  0.6707E-01  0.8162E+00
      2.427  0.2008E-01  0.8177E+00
      2.501  0.1115E+00  0.8260E+00
      2.576  0.1397E+00  0.8365E+00
      2.650  0.1086E+00  0.8446E+00
      2.725  0.7282E-01  0.8500E+00
      2.799  0.6144E-01  0.8546E+00
      2.874  0.1396E+00  0.8650E+00
      2.948  0.4750E-01  0.8688E+00
      3.022  0.7408E-01  0.8743E+00
      3.097  0.7495E-01  0.8799E+00
      3.171  0.9429E-01  0.8870E+00
      3.246  0.1176E+00  0.8959E+00
      3.320  0.1755E+00  0.9090E+00
      3.395  0.1710E+00  0.9219E+00
      3.469  0.7793E-01  0.9279E+00
      3.544  0.5825E-01  0.9322E+00
      3.618  0.1002E+00  0.9397E+00
      3.693  0.5810E-01  0.9443E+00
      3.767  0.8959E-01  0.9511E+00
      3.842  0.1190E+00  0.9599E+00
      3.916  0.2294E+00  0.9772E+00
      3.991  0.1496E+00  0.9883E+00
      4.065  0.5450E-01  0.9925E+00
      4.139  0.1020E+00  0.1000E+01
      4.214  0.7737E-01  0.1006E+01
      4.288  0.5526E-01  0.1010E+01
      4.363  0.1041E+00  0.1018E+01
      4.437  0.1058E+00  0.1026E+01
      4.512  0.1959E+00  0.1041E+01
      4.586  0.1878E+00  0.1055E+01
      4.661  0.1897E+00  0.1070E+01
      4.735  0.1256E+00  0.1079E+01
      4.810  0.4846E-01  0.1083E+01
      4.884  0.9043E-01  0.1089E+01
      4.959  0.9921E-01  0.1097E+01
      5.033  0.1259E+00  0.1106E+01
      5.108  0.1590E+00  0.1118E+01
      5.182  0.2162E-01  0.1120E+01
      5.256  0.0000E+00  0.1120E+01
      5.331  0.0000E+00  0.1120E+01
      5.405  0.0000E+00  0.1120E+01
      5.480  0.0000E+00  0.1120E+01
      5.554  0.0000E+00  0.1120E+01
      5.629  0.0000E+00  0.1120E+01
      5.703  0.0000E+00  0.1120E+01
      5.778  0.0000E+00  0.1120E+01
      5.852  0.0000E+00  0.1120E+01
      5.927  0.0000E+00  0.1120E+01
      6.001  0.0000E+00  0.1120E+01
      6.076  0.0000E+00  0.1120E+01
      6.150  0.0000E+00  0.1120E+01
