 running on  128 total cores
 distrk:  each k-point on  128 cores,    1 groups
 distr:  one band on   16 cores,    8 groups
 vasp.6.2.1 16May21 (build Dec 23 2021 00:35:04) complex                        
  
 POSCAR found type information on POSCAR ClNaO 
 POSCAR found :  3 types and     268 ions
 scaLAPACK will be used
 LDA part: xc-table for Pade appr. of Perdew
 -----------------------------------------------------------------------------
|                                                                             |
|           W    W    AA    RRRRR   N    N  II  N    N   GGGG   !!!           |
|           W    W   A  A   R    R  NN   N  II  NN   N  G    G  !!!           |
|           W    W  A    A  R    R  N N  N  II  N N  N  G       !!!           |
|           W WW W  AAAAAA  RRRRR   N  N N  II  N  N N  G  GGG   !            |
|           WW  WW  A    A  R   R   N   NN  II  N   NN  G    G                |
|           W    W  A    A  R    R  N    N  II  N    N   GGGG   !!!           |
|                                                                             |
|     The requested file  could not be found or opened for reading            |
|     k-point information. Automatic k-point generation is used as a          |
|     fallback, which may lead to unwanted results.                           |
|                                                                             |
 -----------------------------------------------------------------------------

 POSCAR, INCAR and KPOINTS ok, starting setup
 FFT: planning ...
 WAVECAR not read
 entering main loop
       N       E                     dE             d eps       ncg     rms          rms(c)
DAV:   1     0.407062736669E+04    0.40706E+04   -0.16384E+05  1840   0.819E+02
DAV:   2     0.397314882979E+03   -0.36733E+04   -0.34039E+04  2568   0.185E+02
DAV:   3    -0.836502682247E+03   -0.12338E+04   -0.12244E+04  2552   0.105E+02
DAV:   4    -0.882151542269E+03   -0.45649E+02   -0.45429E+02  2128   0.239E+01
DAV:   5    -0.883649083000E+03   -0.14975E+01   -0.14964E+01  2472   0.486E+00    0.636E+01
RMM:   6    -0.718829183142E+03    0.16482E+03   -0.62463E+02  1822   0.212E+01    0.221E+01
RMM:   7    -0.721301845697E+03   -0.24727E+01   -0.12407E+02  2045   0.685E+00    0.186E+01
RMM:   8    -0.717482681182E+03    0.38192E+01   -0.23879E+01  1875   0.452E+00    0.799E+00
RMM:   9    -0.716177419635E+03    0.13053E+01   -0.76207E+00  1833   0.361E+00    0.594E+00
RMM:  10    -0.715149962510E+03    0.10275E+01   -0.51563E+00  2034   0.156E+00    0.231E+00
RMM:  11    -0.715228755897E+03   -0.78793E-01   -0.13855E+00  1980   0.876E-01    0.247E+00
RMM:  12    -0.715077090731E+03    0.15167E+00   -0.44897E-01  1912   0.615E-01    0.752E-01
RMM:  13    -0.715050907918E+03    0.26183E-01   -0.89988E-02  1985   0.287E-01    0.544E-01
RMM:  14    -0.715045781474E+03    0.51264E-02   -0.54552E-02  1947   0.212E-01    0.108E+00
RMM:  15    -0.715023152495E+03    0.22629E-01   -0.26835E-02  2126   0.126E-01    0.118E+00
RMM:  16    -0.714987960870E+03    0.35192E-01   -0.21223E-02  2000   0.121E-01    0.850E-01
RMM:  17    -0.714951795286E+03    0.36166E-01   -0.58984E-02  2053   0.169E-01    0.359E-01
RMM:  18    -0.714930179581E+03    0.21616E-01   -0.24403E-02  2113   0.101E-01    0.361E-01
RMM:  19    -0.714921988001E+03    0.81916E-02   -0.21777E-02  2102   0.117E-01    0.940E-02
RMM:  20    -0.714920653019E+03    0.13350E-02   -0.58897E-03  2277   0.550E-02    0.611E-02
RMM:  21    -0.714920391231E+03    0.26179E-03   -0.10220E-03  2176   0.256E-02    0.450E-02
RMM:  22    -0.714920379363E+03    0.11868E-04   -0.41760E-04  2237   0.176E-02    0.337E-02
RMM:  23    -0.714920357434E+03    0.21929E-04   -0.11098E-04  1912   0.101E-02    0.190E-02
RMM:  24    -0.714920353397E+03    0.40375E-05   -0.10820E-04  1843   0.862E-03    0.742E-03
RMM:  25    -0.714920351995E+03    0.14016E-05   -0.14131E-05  1970   0.413E-03    0.373E-03
RMM:  26    -0.714920352344E+03   -0.34934E-06   -0.60541E-06  2122   0.232E-03    0.385E-03
RMM:  27    -0.714920352166E+03    0.17826E-06   -0.28444E-06  1954   0.142E-03    0.114E-03
RMM:  28    -0.714920352212E+03   -0.45686E-07   -0.47281E-07  2054   0.599E-04    0.926E-04
RMM:  29    -0.714920352125E+03    0.86573E-07   -0.96794E-08  1657   0.304E-04    0.513E-04
RMM:  30    -0.714920352018E+03    0.10766E-06   -0.64250E-08  1546   0.215E-04    0.334E-04
RMM:  31    -0.714920351987E+03    0.30395E-07   -0.22257E-08  1273   0.137E-04    0.263E-04
RMM:  32    -0.714920351969E+03    0.17990E-07   -0.89639E-09  1170   0.970E-05    0.258E-04
RMM:  33    -0.714920351959E+03    0.10343E-07   -0.48223E-09  1154   0.782E-05    0.166E-04
RMM:  34    -0.714920351967E+03   -0.77343E-08   -0.22264E-09  1058   0.546E-05
   1 F= -.71492035E+03 E0= -.71490562E+03  d E =-.714920E+03
 curvature:   0.00 expect dE= 0.000E+00 dE for cont linesearch  0.000E+00
 trial: gam= 0.00000 g(F)=  0.102E+00 g(S)=  0.993E-01 ort = 0.000E+00 (trialstep = 0.100E+01)
 search vector abs. value=  0.202E+00
 bond charge predicted
       N       E                     dE             d eps       ncg     rms          rms(c)
DAV:   1    -0.715274333565E+03   -0.35398E+00   -0.10051E+01  1992   0.426E+00    0.308E+00
RMM:   2    -0.715092191755E+03    0.18214E+00   -0.89639E-01  1959   0.114E+00    0.852E-01
RMM:   3    -0.715098305025E+03   -0.61133E-02   -0.36505E-01  2154   0.652E-01    0.597E-01
RMM:   4    -0.715094282672E+03    0.40224E-02   -0.58315E-02  2099   0.278E-01    0.448E-01
RMM:   5    -0.715094605442E+03   -0.32277E-03   -0.11721E-02  2232   0.114E-01    0.364E-01
RMM:   6    -0.715095999142E+03   -0.13937E-02   -0.82537E-03  1891   0.935E-02    0.282E-01
RMM:   7    -0.715094997631E+03    0.10015E-02   -0.26145E-03  1800   0.575E-02    0.201E-01
RMM:   8    -0.715094158372E+03    0.83926E-03   -0.43575E-03  2022   0.599E-02    0.129E-01
RMM:   9    -0.715093911219E+03    0.24715E-03   -0.13834E-03  2114   0.293E-02    0.510E-02
RMM:  10    -0.715093827525E+03    0.83695E-04   -0.11494E-03  1899   0.307E-02    0.722E-02
RMM:  11    -0.715093674955E+03    0.15257E-03   -0.15186E-04  1879   0.145E-02    0.344E-02
RMM:  12    -0.715093582789E+03    0.92165E-04   -0.42232E-04  1974   0.188E-02    0.264E-02
RMM:  13    -0.715093478716E+03    0.10407E-03   -0.10331E-04  1944   0.935E-03    0.106E-02
RMM:  14    -0.715093407026E+03    0.71690E-04   -0.33265E-04  2178   0.141E-02    0.544E-02
RMM:  15    -0.715093324970E+03    0.82056E-04   -0.22908E-04  2139   0.124E-02    0.159E-02
RMM:  16    -0.715093321982E+03    0.29887E-05   -0.85801E-05  2113   0.736E-03    0.944E-03
RMM:  17    -0.715093314215E+03    0.77667E-05   -0.16371E-05  2188   0.325E-03    0.784E-03
RMM:  18    -0.715093307956E+03    0.62591E-05   -0.84795E-06  2090   0.226E-03    0.353E-03
RMM:  19    -0.715093306399E+03    0.15568E-05   -0.60446E-06  2166   0.188E-03    0.410E-03
RMM:  20    -0.715093304973E+03    0.14256E-05   -0.39833E-06  1999   0.164E-03    0.227E-03
RMM:  21    -0.715093305027E+03   -0.53158E-07   -0.13263E-06  2171   0.852E-04    0.158E-03
RMM:  22    -0.715093305408E+03   -0.38099E-06   -0.53642E-07  2031   0.565E-04    0.103E-03
RMM:  23    -0.715093305542E+03   -0.13423E-06   -0.20808E-07  2014   0.360E-04    0.964E-04
RMM:  24    -0.715093305547E+03   -0.56643E-08   -0.99623E-08  1778   0.240E-04
   2 F= -.71509331E+03 E0= -.71507849E+03  d E =-.172954E+00
 trial-energy change:   -0.172954  1 .order   -0.172959   -0.201574   -0.144344
 step:   3.5222(harm=  3.5222)  dis= 0.06553  next Energy=  -715.275340 (dE=-0.355E+00)
 bond charge predicted
       N       E                     dE             d eps       ncg     rms          rms(c)
DAV:   1    -0.716462352447E+03   -0.13690E+01   -0.64639E+01  2000   0.109E+01    0.801E+00
RMM:   2    -0.715249612563E+03    0.12127E+01   -0.60880E+00  1945   0.299E+00    0.217E+00
RMM:   3    -0.715306131798E+03   -0.56519E-01   -0.25434E+00  2146   0.173E+00    0.158E+00
RMM:   4    -0.715276334419E+03    0.29797E-01   -0.39468E-01  2084   0.733E-01    0.118E+00
RMM:   5    -0.715277361415E+03   -0.10270E-02   -0.88044E-02  2237   0.312E-01    0.937E-01
RMM:   6    -0.715286050670E+03   -0.86893E-02   -0.65013E-02  1941   0.257E-01    0.762E-01
RMM:   7    -0.715277226630E+03    0.88240E-02   -0.24048E-02  1813   0.174E-01    0.489E-01
RMM:   8    -0.715273256757E+03    0.39699E-02   -0.32795E-02  1997   0.160E-01    0.331E-01
RMM:   9    -0.715271612037E+03    0.16447E-02   -0.89888E-03  2085   0.760E-02    0.128E-01
RMM:  10    -0.715271261443E+03    0.35059E-03   -0.74560E-03  1902   0.809E-02    0.181E-01
RMM:  11    -0.715270146710E+03    0.11147E-02   -0.89160E-04  1870   0.362E-02    0.887E-02
RMM:  12    -0.715269453709E+03    0.69300E-03   -0.24518E-03  1905   0.460E-02    0.525E-02
RMM:  13    -0.715268809229E+03    0.64448E-03   -0.69719E-04  1967   0.242E-02    0.315E-02
RMM:  14    -0.715268346671E+03    0.46256E-03   -0.22920E-03  2207   0.353E-02    0.148E-01
RMM:  15    -0.715267850935E+03    0.49574E-03   -0.10244E-03  2039   0.271E-02    0.714E-02
RMM:  16    -0.715267789622E+03    0.61313E-04   -0.10849E-03  2195   0.257E-02    0.305E-02
RMM:  17    -0.715267745279E+03    0.44344E-04   -0.14331E-04  2101   0.956E-03    0.257E-02
RMM:  18    -0.715267708977E+03    0.36302E-04   -0.66513E-05  2091   0.642E-03    0.126E-02
RMM:  19    -0.715267698453E+03    0.10524E-04   -0.62183E-05  2172   0.628E-03    0.890E-03
RMM:  20    -0.715267693533E+03    0.49203E-05   -0.16750E-05  2062   0.302E-03    0.700E-03
RMM:  21    -0.715267690988E+03    0.25446E-05   -0.83029E-06  2127   0.227E-03    0.378E-03
RMM:  22    -0.715267689988E+03    0.10008E-05   -0.41517E-06  2137   0.142E-03    0.434E-03
RMM:  23    -0.715267690599E+03   -0.61113E-06   -0.15978E-06  2074   0.993E-04    0.198E-03
RMM:  24    -0.715267691523E+03   -0.92483E-06   -0.17251E-06  2120   0.981E-04    0.287E-03
RMM:  25    -0.715267690715E+03    0.80873E-06   -0.28433E-07  2000   0.449E-04    0.167E-03
RMM:  26    -0.715267690260E+03    0.45453E-06   -0.15150E-07  1737   0.312E-04    0.733E-04
RMM:  27    -0.715267690122E+03    0.13850E-06   -0.68973E-08  1508   0.208E-04    0.277E-04
RMM:  28    -0.715267690151E+03   -0.29413E-07   -0.10528E-08  1162   0.113E-04    0.231E-04
RMM:  29    -0.715267690168E+03   -0.17284E-07   -0.36538E-09  1130   0.701E-05    0.212E-04
RMM:  30    -0.715267690151E+03    0.17189E-07   -0.21754E-09  1033   0.496E-05    0.146E-04
RMM:  31    -0.715267690123E+03    0.28373E-07   -0.23421E-09   972   0.484E-05    0.509E-05
RMM:  32    -0.715267690108E+03    0.14359E-07   -0.12044E-09   866   0.393E-05    0.953E-06
RMM:  33    -0.715267690111E+03   -0.24665E-08   -0.39131E-10   589   0.292E-05
   3 F= -.71526769E+03 E0= -.71525279E+03  d E =-.347338E+00
 curvature:  -1.76 expect dE=-0.248E+00 dE for cont linesearch -0.286E-03
 trial: gam= 0.72703 g(F)=  0.770E-01 g(S)=  0.638E-01 ort =-0.572E-02 (trialstep = 0.127E+01)
 search vector abs. value=  0.239E+00
 bond charge predicted
       N       E                     dE             d eps       ncg     rms          rms(c)
DAV:   1    -0.715383589928E+03   -0.11590E+00   -0.18092E+01  1984   0.531E+00    0.984E-01
RMM:   2    -0.715427549235E+03   -0.43959E-01   -0.55800E-01  1957   0.929E-01    0.353E-01
RMM:   3    -0.715430932763E+03   -0.33835E-02   -0.83063E-02  2178   0.386E-01    0.311E-01
RMM:   4    -0.715431090890E+03   -0.15813E-03   -0.17281E-02  2190   0.145E-01    0.231E-01
RMM:   5    -0.715429796281E+03    0.12946E-02   -0.58278E-03  1960   0.844E-02    0.864E-02
RMM:   6    -0.715429561657E+03    0.23462E-03   -0.19758E-03  2201   0.495E-02    0.779E-02
RMM:   7    -0.715429422547E+03    0.13911E-03   -0.43413E-04  2163   0.217E-02    0.466E-02
RMM:   8    -0.715429357244E+03    0.65303E-04   -0.39519E-04  2047   0.179E-02    0.204E-02
RMM:   9    -0.715429324811E+03    0.32434E-04   -0.11539E-04  2203   0.114E-02    0.147E-02
RMM:  10    -0.715429304112E+03    0.20699E-04   -0.28068E-05  2199   0.426E-03    0.112E-02
RMM:  11    -0.715429283678E+03    0.20433E-04   -0.17234E-05  2049   0.327E-03    0.694E-03
RMM:  12    -0.715429270831E+03    0.12847E-04   -0.25978E-05  2091   0.387E-03    0.693E-03
RMM:  13    -0.715429265675E+03    0.51566E-05   -0.72665E-06  2148   0.217E-03    0.437E-03
RMM:  14    -0.715429259862E+03    0.58131E-05   -0.16528E-05  2162   0.273E-03    0.468E-03
RMM:  15    -0.715429255884E+03    0.39779E-05   -0.57175E-06  2124   0.176E-03    0.307E-03
RMM:  16    -0.715429253629E+03    0.22549E-05   -0.39857E-06  2189   0.150E-03    0.283E-03
RMM:  17    -0.715429251387E+03    0.22418E-05   -0.35103E-06  2188   0.127E-03    0.231E-03
RMM:  18    -0.715429250940E+03    0.44665E-06   -0.37001E-06  2192   0.133E-03    0.326E-03
RMM:  19    -0.715429250316E+03    0.62421E-06   -0.10004E-06  2063   0.791E-04    0.147E-03
RMM:  20    -0.715429250110E+03    0.20583E-06   -0.89880E-07  2170   0.652E-04    0.729E-04
RMM:  21    -0.715429250041E+03    0.68809E-07   -0.16997E-07  1965   0.335E-04    0.539E-04
RMM:  22    -0.715429249943E+03    0.98236E-07   -0.10295E-07  1741   0.225E-04    0.352E-04
RMM:  23    -0.715429249909E+03    0.33782E-07   -0.76249E-08  1662   0.184E-04    0.257E-04
WARNING in EDDRMM: call to ZHEGV failed, returncode =   8  4     38
RMM:  24    -0.715429249920E+03   -0.10103E-07   -0.35718E-08  1449   0.148E-04    0.191E-04
RMM:  25    -0.715429249909E+03    0.10790E-07   -0.11920E-08  1154   0.999E-05    0.744E-05
RMM:  26    -0.715429249913E+03   -0.44747E-08   -0.46462E-09  1108   0.709E-05
   4 F= -.71542925E+03 E0= -.71541444E+03  d E =-.161560E+00
 ZBRENT: can't locate minimum, use default step
 trial-energy change:   -0.161560  1 .order   -0.161665   -0.173371   -0.149959
 step:   5.0743(harm=  9.3939)  dis= 0.13857  next Energy=  -715.909603 (dE=-0.642E+00)
 bond charge predicted
       N       E                     dE             d eps       ncg     rms          rms(c)
DAV:   1    -0.715320901297E+03    0.10835E+00   -0.16186E+02  1896   0.159E+01    0.307E+00
RMM:   2    -0.715744290938E+03   -0.42339E+00   -0.53759E+00  1937   0.285E+00    0.112E+00
RMM:   3    -0.715802538813E+03   -0.58248E-01   -0.10806E+00  2180   0.125E+00    0.106E+00
RMM:   4    -0.715795134761E+03    0.74041E-02   -0.12604E-01  2143   0.425E-01    0.670E-01
RMM:   5    -0.715783258935E+03    0.11876E-01   -0.49723E-02  1966   0.253E-01    0.226E-01
RMM:   6    -0.715781673406E+03    0.15855E-02   -0.16624E-02  2214   0.146E-01    0.170E-01
RMM:   7    -0.715780753621E+03    0.91978E-03   -0.37822E-03  2208   0.617E-02    0.905E-02
RMM:   8    -0.715780395061E+03    0.35856E-03   -0.16280E-03  2054   0.398E-02    0.555E-02
RMM:   9    -0.715780131677E+03    0.26338E-03   -0.56495E-04  2347   0.240E-02    0.409E-02
RMM:  10    -0.715779973345E+03    0.15833E-03   -0.16190E-04  2156   0.106E-02    0.263E-02
RMM:  11    -0.715779815196E+03    0.15815E-03   -0.15501E-04  2096   0.959E-03    0.150E-02
RMM:  12    -0.715779730823E+03    0.84372E-04   -0.89719E-05  2214   0.725E-03    0.142E-02
RMM:  13    -0.715779677067E+03    0.53756E-04   -0.57039E-05  2046   0.577E-03    0.111E-02
RMM:  14    -0.715779610096E+03    0.66972E-04   -0.87106E-05  2080   0.630E-03    0.101E-02
RMM:  15    -0.715779595203E+03    0.14893E-04   -0.37313E-05  2162   0.455E-03    0.984E-03
RMM:  16    -0.715779569076E+03    0.26127E-04   -0.42216E-05  2117   0.505E-03    0.901E-03
RMM:  17    -0.715779558246E+03    0.10830E-04   -0.23234E-05  2187   0.322E-03    0.494E-03
RMM:  18    -0.715779554617E+03    0.36292E-05   -0.30273E-05  2211   0.389E-03    0.788E-03
RMM:  19    -0.715779550338E+03    0.42786E-05   -0.11746E-05  2084   0.272E-03    0.286E-03
RMM:  20    -0.715779549680E+03    0.65876E-06   -0.47625E-06  2236   0.162E-03    0.321E-03
RMM:  21    -0.715779548792E+03    0.88712E-06   -0.42225E-06  1983   0.171E-03    0.335E-03
RMM:  22    -0.715779548195E+03    0.59779E-06   -0.12287E-06  2038   0.835E-04    0.204E-03
RMM:  23    -0.715779548006E+03    0.18859E-06   -0.80478E-07  2084   0.665E-04    0.781E-04
RMM:  24    -0.715779547971E+03    0.35307E-07   -0.28118E-07  2076   0.397E-04    0.507E-04
RMM:  25    -0.715779547994E+03   -0.23734E-07   -0.34342E-08  1328   0.182E-04    0.410E-04
RMM:  26    -0.715779548003E+03   -0.82073E-08   -0.12966E-08  1184   0.116E-04
   5 F= -.71577955E+03 E0= -.71576565E+03  d E =-.511858E+00
 curvature:  -5.89 expect dE=-0.573E+00 dE for cont linesearch -0.107E+00
 ZBRENT: increasing intervall
 opt :  12.6858  next Energy=  -715.880426 (dE=-0.613E+00)
 bond charge predicted
       N       E                     dE             d eps       ncg     rms          rms(c)
DAV:   1    -0.713512332707E+03    0.22672E+01   -0.63709E+02  1856   0.310E+01    0.670E+00
RMM:   2    -0.715729313458E+03   -0.22170E+01   -0.28112E+01  1894   0.587E+00    0.277E+00
RMM:   3    -0.715982667504E+03   -0.25335E+00   -0.50410E+00  2195   0.265E+00    0.272E+00
RMM:   4    -0.715888233521E+03    0.94434E-01   -0.61953E-01  2093   0.952E-01    0.144E+00
RMM:   5    -0.715839183023E+03    0.49050E-01   -0.28187E-01  2001   0.565E-01    0.524E-01
RMM:   6    -0.715830317526E+03    0.88655E-02   -0.69974E-02  2238   0.297E-01    0.290E-01
RMM:   7    -0.715828624819E+03    0.16927E-02   -0.17860E-02  2183   0.128E-01    0.160E-01
RMM:   8    -0.715827244068E+03    0.13808E-02   -0.52254E-03  2169   0.643E-02    0.945E-02
RMM:   9    -0.715826554996E+03    0.68907E-03   -0.21991E-03  2239   0.436E-02    0.899E-02
RMM:  10    -0.715826026510E+03    0.52849E-03   -0.71617E-04  2079   0.248E-02    0.426E-02
RMM:  11    -0.715825416687E+03    0.60982E-03   -0.11951E-03  2049   0.241E-02    0.517E-02
RMM:  12    -0.715825302867E+03    0.11382E-03   -0.24668E-04  2241   0.129E-02    0.262E-02
RMM:  13    -0.715825010162E+03    0.29271E-03   -0.41803E-04  2000   0.149E-02    0.305E-02
RMM:  14    -0.715824839573E+03    0.17059E-03   -0.26430E-04  2116   0.108E-02    0.168E-02
RMM:  15    -0.715824788934E+03    0.50639E-04   -0.78629E-05  2291   0.610E-03    0.107E-02
RMM:  16    -0.715824722268E+03    0.66666E-04   -0.75256E-05  2088   0.603E-03    0.110E-02
RMM:  17    -0.715824681873E+03    0.40395E-04   -0.94788E-05  2187   0.613E-03    0.772E-03
RMM:  18    -0.715824667507E+03    0.14366E-04   -0.32344E-05  2242   0.401E-03    0.661E-03
RMM:  19    -0.715824661333E+03    0.61740E-05   -0.22655E-05  2140   0.349E-03    0.615E-03
RMM:  20    -0.715824658498E+03    0.28354E-05   -0.90248E-06  2097   0.236E-03    0.244E-03
RMM:  21    -0.715824656862E+03    0.16359E-05   -0.38673E-06  2090   0.134E-03    0.158E-03
RMM:  22    -0.715824656315E+03    0.54678E-06   -0.17471E-06  2166   0.939E-04    0.140E-03
RMM:  23    -0.715824656145E+03    0.17052E-06   -0.64098E-07  2105   0.642E-04    0.954E-04
RMM:  24    -0.715824656258E+03   -0.11378E-06   -0.20256E-07  1952   0.400E-04    0.347E-04
RMM:  25    -0.715824656334E+03   -0.75543E-07   -0.82601E-08  1611   0.255E-04    0.398E-04
RMM:  26    -0.715824656282E+03    0.51594E-07   -0.55878E-09  1183   0.123E-04    0.225E-04
RMM:  27    -0.715824656249E+03    0.33149E-07    0.30712E-09  1161   0.103E-04    0.655E-05
RMM:  28    -0.715824656251E+03   -0.13424E-08   -0.39943E-08  1099   0.743E-05
   6 F= -.71582466E+03 E0= -.71581433E+03  d E =-.556966E+00
 curvature:  -5.58 expect dE=-0.190E+01 dE for cont linesearch -0.973E-01
 ZBRENT: bracketing found
 ZBRENT: interpolating
 opt :   8.9144  next Energy=  -715.946388 (dE=-0.679E+00)
 bond charge predicted
       N       E                     dE             d eps       ncg     rms          rms(c)
DAV:   1    -0.715464029407E+03    0.36063E+00   -0.16034E+02  1904   0.152E+01    0.324E+00
RMM:   2    -0.715888814893E+03   -0.42479E+00   -0.55622E+00  1927   0.279E+00    0.110E+00
RMM:   3    -0.715945985397E+03   -0.57171E-01   -0.10400E+00  2183   0.123E+00    0.106E+00
RMM:   4    -0.715938897784E+03    0.70876E-02   -0.11860E-01  2138   0.414E-01    0.696E-01
RMM:   5    -0.715927622462E+03    0.11275E-01   -0.57538E-02  1964   0.267E-01    0.259E-01
RMM:   6    -0.715926013684E+03    0.16088E-02   -0.13598E-02  2256   0.134E-01    0.177E-01
RMM:   7    -0.715925265686E+03    0.74800E-03   -0.43501E-03  2120   0.667E-02    0.910E-02
RMM:   8    -0.715925021005E+03    0.24468E-03   -0.11310E-03  2270   0.329E-02    0.540E-02
RMM:   9    -0.715924800264E+03    0.22074E-03   -0.38297E-04  2202   0.182E-02    0.294E-02
RMM:  10    -0.715924681518E+03    0.11875E-03   -0.11545E-04  2297   0.965E-03    0.203E-02
RMM:  11    -0.715924584305E+03    0.97213E-04   -0.63793E-05  2128   0.626E-03    0.128E-02
RMM:  12    -0.715924500110E+03    0.84196E-04   -0.92644E-05  2080   0.696E-03    0.143E-02
RMM:  13    -0.715924455244E+03    0.44866E-04   -0.37300E-05  2188   0.434E-03    0.111E-02
RMM:  14    -0.715924417004E+03    0.38240E-04   -0.94439E-05  2286   0.716E-03    0.106E-02
RMM:  15    -0.715924396493E+03    0.20511E-04   -0.22683E-05  2165   0.351E-03    0.828E-03
RMM:  16    -0.715924388445E+03    0.80488E-05   -0.16485E-05  2177   0.307E-03    0.384E-03
RMM:  17    -0.715924379239E+03    0.92059E-05   -0.17268E-05  2182   0.263E-03    0.319E-03
RMM:  18    -0.715924377080E+03    0.21582E-05   -0.65287E-06  2226   0.156E-03    0.212E-03
RMM:  19    -0.715924375873E+03    0.12069E-05   -0.21583E-06  2226   0.103E-03    0.138E-03
RMM:  20    -0.715924375239E+03    0.63400E-06   -0.67701E-07  2131   0.623E-04    0.127E-03
RMM:  21    -0.715924374788E+03    0.45101E-06   -0.71210E-07  2000   0.593E-04    0.669E-04
RMM:  22    -0.715924374650E+03    0.13845E-06   -0.40537E-07  2049   0.441E-04    0.522E-04
RMM:  23    -0.715924374660E+03   -0.10179E-07   -0.13277E-07  1878   0.248E-04    0.382E-04
RMM:  24    -0.715924374672E+03   -0.11543E-07   -0.18761E-08  1225   0.138E-04    0.159E-04
RMM:  25    -0.715924374656E+03    0.15789E-07   -0.88730E-09  1161   0.973E-05    0.772E-05
RMM:  26    -0.715924374651E+03    0.49076E-08   -0.26010E-09  1115   0.580E-05
   7 F= -.71592437E+03 E0= -.71591216E+03  d E =-.656685E+00
 curvature:  -6.98 expect dE=-0.119E+01 dE for cont linesearch -0.196E-02
 trial: gam= 0.98587 g(F)=  0.156E+00 g(S)=  0.135E-01 ort = 0.820E-02 (trialstep = 0.160E+01)
 search vector abs. value=  0.419E+00
 bond charge predicted
       N       E                     dE             d eps       ncg     rms          rms(c)
DAV:   1    -0.716079670591E+03   -0.15530E+00   -0.42025E+01  1888   0.837E+00    0.179E+00
RMM:   2    -0.716148954061E+03   -0.69283E-01   -0.12869E+00  1949   0.157E+00    0.548E-01
RMM:   3    -0.716163503894E+03   -0.14550E-01   -0.28791E-01  2141   0.720E-01    0.458E-01
RMM:   4    -0.716164702237E+03   -0.11983E-02   -0.43541E-02  2180   0.257E-01    0.371E-01
RMM:   5    -0.716162411710E+03    0.22905E-02   -0.13987E-02  1971   0.144E-01    0.195E-01
RMM:   6    -0.716161772064E+03    0.63965E-03   -0.60779E-03  2154   0.872E-02    0.164E-01
RMM:   7    -0.716161012117E+03    0.75995E-03   -0.30808E-03  1967   0.593E-02    0.472E-02
RMM:   8    -0.716160973025E+03    0.39091E-04   -0.12336E-03  2208   0.323E-02    0.470E-02
RMM:   9    -0.716160850867E+03    0.12216E-03   -0.33260E-04  2096   0.189E-02    0.211E-02
RMM:  10    -0.716160773199E+03    0.77668E-04   -0.13399E-04  2135   0.937E-03    0.206E-02
RMM:  11    -0.716160715867E+03    0.57332E-04   -0.10343E-04  2054   0.908E-03    0.143E-02
RMM:  12    -0.716160663776E+03    0.52092E-04   -0.53455E-05  2097   0.588E-03    0.868E-03
RMM:  13    -0.716160596199E+03    0.67577E-04   -0.10727E-04  2105   0.702E-03    0.159E-02
RMM:  14    -0.716160563600E+03    0.32599E-04   -0.56355E-05  2032   0.587E-03    0.602E-03
RMM:  15    -0.716160540481E+03    0.23120E-04   -0.53960E-05  2161   0.476E-03    0.759E-03
RMM:  16    -0.716160531260E+03    0.92207E-05   -0.16022E-05  2072   0.283E-03    0.387E-03
RMM:  17    -0.716160526533E+03    0.47267E-05   -0.95479E-06  2192   0.209E-03    0.346E-03
RMM:  18    -0.716160524358E+03    0.21748E-05   -0.25321E-06  2081   0.123E-03    0.283E-03
RMM:  19    -0.716160523523E+03    0.83552E-06   -0.14725E-06  2157   0.900E-04    0.177E-03
RMM:  20    -0.716160523286E+03    0.23669E-06   -0.13459E-06  2135   0.904E-04    0.107E-03
RMM:  21    -0.716160523141E+03    0.14501E-06   -0.36130E-07  2120   0.439E-04    0.806E-04
RMM:  22    -0.716160522908E+03    0.23361E-06   -0.22461E-07  1909   0.367E-04    0.533E-04
RMM:  23    -0.716160522950E+03   -0.42703E-07   -0.11301E-07  1793   0.244E-04    0.314E-04
RMM:  24    -0.716160523025E+03   -0.74797E-07   -0.46718E-08  1416   0.166E-04    0.153E-04
RMM:  25    -0.716160523035E+03   -0.99790E-08   -0.41172E-09  1190   0.124E-04
   8 F= -.71616052E+03 E0= -.71614909E+03  d E =-.236148E+00
 trial-energy change:   -0.236148  1 .order   -0.236251   -0.284600   -0.187903
 step:   4.7034(harm=  4.7034)  dis= 0.19583  next Energy=  -716.343196 (dE=-0.419E+00)
 bond charge predicted
       N       E                     dE             d eps       ncg     rms          rms(c)
DAV:   1    -0.715978496367E+03    0.18203E+00   -0.15837E+02  1824   0.163E+01    0.341E+00
RMM:   2    -0.716287662498E+03   -0.30917E+00   -0.51499E+00  1934   0.319E+00    0.111E+00
RMM:   3    -0.716337280916E+03   -0.49618E-01   -0.10858E+00  2133   0.144E+00    0.872E-01
RMM:   4    -0.716343354784E+03   -0.60739E-02   -0.17483E-01  2185   0.532E-01    0.695E-01
RMM:   5    -0.716335411014E+03    0.79438E-02   -0.54146E-02  1973   0.292E-01    0.363E-01
RMM:   6    -0.716333315891E+03    0.20951E-02   -0.22409E-02  2148   0.173E-01    0.322E-01
RMM:   7    -0.716330689509E+03    0.26264E-02   -0.10368E-02  1965   0.110E-01    0.994E-02
RMM:   8    -0.716330578894E+03    0.11061E-03   -0.50846E-03  2142   0.668E-02    0.928E-02
RMM:   9    -0.716330099617E+03    0.47928E-03   -0.10604E-03  2094   0.368E-02    0.425E-02
RMM:  10    -0.716329813125E+03    0.28649E-03   -0.54929E-04  2144   0.200E-02    0.362E-02
RMM:  11    -0.716329597547E+03    0.21558E-03   -0.30596E-04  2074   0.159E-02    0.286E-02
RMM:  12    -0.716329421141E+03    0.17641E-03   -0.23413E-04  2084   0.123E-02    0.183E-02
RMM:  13    -0.716329193551E+03    0.22759E-03   -0.30976E-04  2062   0.122E-02    0.279E-02
RMM:  14    -0.716329060871E+03    0.13268E-03   -0.18260E-04  2021   0.992E-03    0.124E-02
RMM:  15    -0.716328972293E+03    0.88578E-04   -0.19900E-04  2159   0.911E-03    0.117E-02
RMM:  16    -0.716328941235E+03    0.31058E-04   -0.57625E-05  2090   0.496E-03    0.857E-03
RMM:  17    -0.716328925291E+03    0.15944E-04   -0.31646E-05  2193   0.425E-03    0.646E-03
RMM:  18    -0.716328918014E+03    0.72777E-05   -0.12830E-05  2124   0.268E-03    0.536E-03
RMM:  19    -0.716328915780E+03    0.22334E-05   -0.50952E-06  2153   0.180E-03    0.304E-03
RMM:  20    -0.716328914233E+03    0.15469E-05   -0.46719E-06  2142   0.167E-03    0.257E-03
RMM:  21    -0.716328913346E+03    0.88710E-06   -0.15686E-06  2023   0.100E-03    0.127E-03
RMM:  22    -0.716328913139E+03    0.20770E-06   -0.10694E-06  2143   0.703E-04    0.127E-03
RMM:  23    -0.716328913261E+03   -0.12209E-06   -0.48761E-07  1980   0.590E-04    0.460E-04
RMM:  24    -0.716328913270E+03   -0.97534E-08   -0.19620E-07  1921   0.303E-04    0.380E-04
RMM:  25    -0.716328913264E+03    0.67448E-08   -0.29092E-08  1323   0.149E-04
   9 F= -.71632891E+03 E0= -.71631910E+03  d E =-.404539E+00
 curvature:  -5.53 expect dE=-0.106E+01 dE for cont linesearch -0.337E-02
 trial: gam= 1.06903 g(F)=  0.161E+00 g(S)=  0.316E-01 ort =-0.160E-01 (trialstep = 0.146E+01)
 search vector abs. value=  0.636E+00
 bond charge predicted
       N       E                     dE             d eps       ncg     rms          rms(c)
DAV:   1    -0.716473388886E+03   -0.14448E+00   -0.23576E+01  1952   0.641E+00    0.153E+00
RMM:   2    -0.716529833075E+03   -0.56444E-01   -0.88060E-01  1949   0.133E+00    0.428E-01
RMM:   3    -0.716543292233E+03   -0.13459E-01   -0.20836E-01  2252   0.587E-01    0.565E-01
RMM:   4    -0.716542930221E+03    0.36201E-03   -0.23378E-02  2107   0.188E-01    0.412E-01
RMM:   5    -0.716540064133E+03    0.28661E-02   -0.16877E-02  1950   0.142E-01    0.181E-01
RMM:   6    -0.716540036925E+03    0.27209E-04   -0.75795E-03  2160   0.884E-02    0.192E-01
RMM:   7    -0.716539002926E+03    0.10340E-02   -0.15909E-03  1968   0.468E-02    0.112E-01
RMM:   8    -0.716538631365E+03    0.37156E-03   -0.15015E-03  2093   0.359E-02    0.481E-02
RMM:   9    -0.716538396609E+03    0.23476E-03   -0.50117E-04  2178   0.208E-02    0.251E-02
RMM:  10    -0.716538224674E+03    0.17194E-03   -0.20028E-04  2157   0.129E-02    0.235E-02
RMM:  11    -0.716537887136E+03    0.33754E-03   -0.33665E-04  1999   0.135E-02    0.175E-02
RMM:  12    -0.716537761055E+03    0.12608E-03   -0.19320E-04  2085   0.944E-03    0.186E-02
RMM:  13    -0.716537671563E+03    0.89492E-04   -0.12765E-04  2223   0.711E-03    0.154E-02
RMM:  14    -0.716537619385E+03    0.52177E-04   -0.10469E-04  2137   0.731E-03    0.872E-03
RMM:  15    -0.716537609761E+03    0.96247E-05   -0.22275E-05  2274   0.356E-03    0.549E-03
RMM:  16    -0.716537598777E+03    0.10984E-04   -0.13433E-05  2019   0.272E-03    0.605E-03
RMM:  17    -0.716537590206E+03    0.85710E-05   -0.20140E-05  2068   0.322E-03    0.615E-03
RMM:  18    -0.716537587424E+03    0.27811E-05   -0.84148E-06  2178   0.214E-03    0.443E-03
RMM:  19    -0.716537586589E+03    0.83556E-06   -0.60200E-06  2027   0.211E-03    0.250E-03
RMM:  20    -0.716537586500E+03    0.88392E-07   -0.21161E-06  2273   0.114E-03    0.247E-03
RMM:  21    -0.716537586145E+03    0.35519E-06   -0.65970E-07  1935   0.769E-04    0.591E-04
RMM:  22    -0.716537586042E+03    0.10368E-06   -0.29315E-07  2113   0.486E-04    0.587E-04
RMM:  23    -0.716537586042E+03   -0.87311E-09   -0.22139E-08  1353   0.194E-04
  10 F= -.71653759E+03 E0= -.71652852E+03  d E =-.208673E+00
 trial-energy change:   -0.208673  1 .order   -0.207765   -0.255471   -0.160059
 step:   3.6060(harm=  3.9087)  dis= 0.16204  next Energy=  -716.658132 (dE=-0.329E+00)
 bond charge predicted
       N       E                     dE             d eps       ncg     rms          rms(c)
DAV:   1    -0.716499196032E+03    0.38390E-01   -0.51058E+01  1816   0.949E+00    0.229E+00
RMM:   2    -0.716632622392E+03   -0.13343E+00   -0.20330E+00  1958   0.204E+00    0.635E-01
RMM:   3    -0.716662845769E+03   -0.30223E-01   -0.46685E-01  2246   0.894E-01    0.854E-01
RMM:   4    -0.716662011695E+03    0.83407E-03   -0.52561E-02  2104   0.287E-01    0.626E-01
RMM:   5    -0.716655561124E+03    0.64506E-02   -0.40458E-02  1940   0.220E-01    0.277E-01
RMM:   6    -0.716655435429E+03    0.12570E-03   -0.16111E-02  2195   0.131E-01    0.298E-01
RMM:   7    -0.716652873906E+03    0.25615E-02   -0.39257E-03  1962   0.708E-02    0.168E-01
RMM:   8    -0.716651965746E+03    0.90816E-03   -0.47609E-03  2034   0.642E-02    0.569E-02
RMM:   9    -0.716651535071E+03    0.43068E-03   -0.95033E-04  2242   0.310E-02    0.344E-02
RMM:  10    -0.716650938582E+03    0.59649E-03   -0.30220E-04  2050   0.148E-02    0.244E-02
RMM:  11    -0.716650246352E+03    0.69223E-03   -0.72072E-04  2077   0.186E-02    0.329E-02
RMM:  12    -0.716650029421E+03    0.21693E-03   -0.68628E-04  2150   0.211E-02    0.435E-02
RMM:  13    -0.716649771145E+03    0.25828E-03   -0.40931E-04  2108   0.145E-02    0.359E-02
RMM:  14    -0.716649682796E+03    0.88348E-04   -0.27018E-04  2166   0.114E-02    0.157E-02
RMM:  15    -0.716649650170E+03    0.32626E-04   -0.64803E-05  2269   0.602E-03    0.785E-03
RMM:  16    -0.716649622142E+03    0.28028E-04   -0.42021E-05  2017   0.521E-03    0.105E-02
RMM:  17    -0.716649612450E+03    0.96919E-05   -0.19614E-05  2164   0.317E-03    0.697E-03
RMM:  18    -0.716649605484E+03    0.69659E-05   -0.17601E-05  2104   0.283E-03    0.343E-03
RMM:  19    -0.716649603611E+03    0.18732E-05   -0.72215E-06  2207   0.185E-03    0.248E-03
RMM:  20    -0.716649603280E+03    0.33080E-06   -0.10512E-06  2235   0.853E-04    0.142E-03
RMM:  21    -0.716649603167E+03    0.11335E-06   -0.21879E-07  2027   0.455E-04    0.735E-04
RMM:  22    -0.716649603132E+03    0.34619E-07   -0.98073E-08  1781   0.257E-04    0.429E-04
RMM:  23    -0.716649603084E+03    0.48622E-07   -0.23185E-08  1368   0.174E-04    0.163E-04
RMM:  24    -0.716649603055E+03    0.28624E-07   -0.37680E-08  1177   0.132E-04    0.913E-05
RMM:  25    -0.716649603062E+03   -0.66248E-08   -0.17988E-09  1168   0.903E-05
  11 F= -.71664960E+03 E0= -.71664160E+03  d E =-.320690E+00
 curvature:  -7.00 expect dE=-0.119E+01 dE for cont linesearch -0.118E-02
 trial: gam= 0.39173 g(F)=  0.168E+00 g(S)=  0.172E-02 ort =-0.104E-01 (trialstep = 0.189E+01)
 search vector abs. value=  0.259E+00
 bond charge predicted
       N       E                     dE             d eps       ncg     rms          rms(c)
DAV:   1    -0.716714002442E+03   -0.64399E-01   -0.49544E+01  1896   0.799E+00    0.194E+00
RMM:   2    -0.716853503977E+03   -0.13950E+00   -0.19602E+00  1925   0.163E+00    0.508E-01
RMM:   3    -0.716878580764E+03   -0.25077E-01   -0.36858E-01  2271   0.736E-01    0.671E-01
RMM:   4    -0.716877033782E+03    0.15470E-02   -0.35946E-02  2065   0.227E-01    0.496E-01
RMM:   5    -0.716872514843E+03    0.45189E-02   -0.20585E-02  1940   0.158E-01    0.202E-01
RMM:   6    -0.716871555440E+03    0.95940E-03   -0.54685E-03  2141   0.826E-02    0.113E-01
RMM:   7    -0.716871185464E+03    0.36998E-03   -0.16887E-03  1959   0.439E-02    0.756E-02
RMM:   8    -0.716870988005E+03    0.19746E-03   -0.11260E-03  2075   0.310E-02    0.271E-02
RMM:   9    -0.716870895927E+03    0.92078E-04   -0.26338E-04  2289   0.165E-02    0.215E-02
RMM:  10    -0.716870801100E+03    0.94827E-04   -0.69431E-05  2150   0.747E-03    0.122E-02
RMM:  11    -0.716870669791E+03    0.13131E-03   -0.97533E-05  2102   0.724E-03    0.127E-02
RMM:  12    -0.716870602881E+03    0.66910E-04   -0.57709E-05  2185   0.545E-03    0.156E-02
RMM:  13    -0.716870486116E+03    0.11676E-03   -0.17754E-04  2325   0.909E-03    0.113E-02
RMM:  14    -0.716870442651E+03    0.43465E-04   -0.63792E-05  2132   0.505E-03    0.830E-03
RMM:  15    -0.716870432623E+03    0.10028E-04   -0.29677E-05  2153   0.407E-03    0.669E-03
RMM:  16    -0.716870426685E+03    0.59384E-05   -0.18613E-05  2074   0.333E-03    0.403E-03
RMM:  17    -0.716870425568E+03    0.11163E-05   -0.53975E-06  2198   0.187E-03    0.183E-03
RMM:  18    -0.716870424942E+03    0.62586E-06   -0.20221E-06  2052   0.123E-03    0.323E-03
RMM:  19    -0.716870423966E+03    0.97602E-06   -0.17096E-06  2085   0.931E-04    0.202E-03
RMM:  20    -0.716870423596E+03    0.37034E-06   -0.78925E-07  2201   0.609E-04    0.120E-03
RMM:  21    -0.716870423333E+03    0.26306E-06   -0.22801E-07  2008   0.378E-04    0.528E-04
RMM:  22    -0.716870423259E+03    0.74411E-07   -0.18065E-07  1903   0.327E-04    0.579E-04
RMM:  23    -0.716870423314E+03   -0.55541E-07   -0.37223E-08  1477   0.191E-04    0.226E-04
RMM:  24    -0.716870423357E+03   -0.42830E-07   -0.46834E-08  1467   0.189E-04    0.264E-04
RMM:  25    -0.716870423309E+03    0.48207E-07   -0.92543E-09  1139   0.105E-04    0.112E-04
RMM:  26    -0.716870423290E+03    0.18390E-07   -0.95606E-09  1099   0.958E-05    0.894E-05
RMM:  27    -0.716870423312E+03   -0.22126E-07   -0.29054E-09  1024   0.636E-05    0.611E-05
RMM:  28    -0.716870423312E+03    0.76034E-09   -0.87008E-10   768   0.346E-05
  12 F= -.71687042E+03 E0= -.71686250E+03  d E =-.220820E+00
 trial-energy change:   -0.220820  1 .order   -0.224229   -0.312493   -0.135964
 step:   3.7836(harm=  3.3440)  dis= 0.12769  next Energy=  -716.935166 (dE=-0.286E+00)
 bond charge predicted
       N       E                     dE             d eps       ncg     rms          rms(c)
DAV:   1    -0.716761272660E+03    0.10915E+00   -0.49652E+01  1864   0.815E+00    0.196E+00
RMM:   2    -0.716907127684E+03   -0.14586E+00   -0.20120E+00  1927   0.168E+00    0.501E-01
RMM:   3    -0.716936210145E+03   -0.29082E-01   -0.40765E-01  2280   0.768E-01    0.685E-01
RMM:   4    -0.716934564856E+03    0.16453E-02   -0.35952E-02  2052   0.231E-01    0.505E-01
RMM:   5    -0.716929840847E+03    0.47240E-02   -0.20587E-02  1937   0.160E-01    0.205E-01
RMM:   6    -0.716928854294E+03    0.98655E-03   -0.59150E-03  2132   0.860E-02    0.112E-01
RMM:   7    -0.716928492163E+03    0.36213E-03   -0.16982E-03  1969   0.447E-02    0.784E-02
RMM:   8    -0.716928269056E+03    0.22311E-03   -0.12865E-03  2094   0.334E-02    0.269E-02
RMM:   9    -0.716928177173E+03    0.91882E-04   -0.25928E-04  2251   0.171E-02    0.209E-02
RMM:  10    -0.716928075913E+03    0.10126E-03   -0.86175E-05  2136   0.772E-03    0.124E-02
RMM:  11    -0.716927942280E+03    0.13363E-03   -0.95585E-05  2098   0.698E-03    0.129E-02
RMM:  12    -0.716927880145E+03    0.62135E-04   -0.61389E-05  2200   0.592E-03    0.182E-02
RMM:  13    -0.716927752977E+03    0.12717E-03   -0.18232E-04  2326   0.934E-03    0.113E-02
RMM:  14    -0.716927702928E+03    0.50049E-04   -0.77017E-05  2151   0.558E-03    0.884E-03
RMM:  15    -0.716927691679E+03    0.11249E-04   -0.36345E-05  2135   0.448E-03    0.634E-03
RMM:  16    -0.716927686566E+03    0.51126E-05   -0.21986E-05  2129   0.350E-03    0.484E-03
RMM:  17    -0.716927685690E+03    0.87611E-06   -0.54167E-06  2132   0.206E-03    0.218E-03
RMM:  18    -0.716927685090E+03    0.60053E-06   -0.19575E-06  2108   0.120E-03    0.364E-03
RMM:  19    -0.716927683848E+03    0.12422E-05   -0.18515E-06  2062   0.102E-03    0.160E-03
RMM:  20    -0.716927683631E+03    0.21704E-06   -0.70039E-07  2206   0.595E-04    0.136E-03
RMM:  21    -0.716927683395E+03    0.23592E-06   -0.23728E-07  1930   0.397E-04    0.572E-04
RMM:  22    -0.716927683306E+03    0.89036E-07   -0.26229E-07  1962   0.373E-04    0.490E-04
RMM:  23    -0.716927683374E+03   -0.68696E-07   -0.48838E-08  1511   0.210E-04    0.222E-04
RMM:  24    -0.716927683382E+03   -0.81563E-08   -0.29462E-08  1368   0.158E-04
  13 F= -.71692768E+03 E0= -.71692009E+03  d E =-.278080E+00
 curvature:  -2.38 expect dE=-0.251E+00 dE for cont linesearch -0.637E-03
 trial: gam= 0.60237 g(F)=  0.980E-01 g(S)=  0.729E-02 ort =-0.833E-02 (trialstep = 0.227E+01)
 search vector abs. value=  0.189E+00
 bond charge predicted
       N       E                     dE             d eps       ncg     rms          rms(c)
DAV:   1    -0.716957788399E+03   -0.30105E-01   -0.38717E+01  1816   0.827E+00    0.184E+00
RMM:   2    -0.717081867796E+03   -0.12408E+00   -0.14966E+00  1958   0.174E+00    0.450E-01
RMM:   3    -0.717108655765E+03   -0.26788E-01   -0.33286E-01  2262   0.767E-01    0.769E-01
RMM:   4    -0.717109414850E+03   -0.75908E-03   -0.40906E-02  2132   0.254E-01    0.590E-01
RMM:   5    -0.717104248158E+03    0.51667E-02   -0.12791E-02  1956   0.135E-01    0.256E-01
RMM:   6    -0.717104515325E+03   -0.26717E-03   -0.27041E-02  2003   0.153E-01    0.283E-01
RMM:   7    -0.717102490273E+03    0.20251E-02   -0.32049E-03  1942   0.608E-02    0.145E-01
RMM:   8    -0.717102474103E+03    0.16170E-04   -0.15010E-02  2177   0.962E-02    0.149E-01
RMM:   9    -0.717102042780E+03    0.43132E-03   -0.74693E-04  2101   0.334E-02    0.118E-01
RMM:  10    -0.717101832832E+03    0.20995E-03   -0.19103E-04  2018   0.157E-02    0.108E-01
RMM:  11    -0.717101079080E+03    0.75375E-03   -0.20999E-03  2295   0.343E-02    0.143E-01
RMM:  12    -0.717100837540E+03    0.24154E-03   -0.33380E-04  2067   0.157E-02    0.119E-01
RMM:  13    -0.717100519069E+03    0.31847E-03   -0.62887E-04  2237   0.196E-02    0.705E-02
RMM:  14    -0.717100414955E+03    0.10411E-03   -0.11025E-04  2095   0.939E-03    0.404E-02
RMM:  15    -0.717100257741E+03    0.15721E-03   -0.42644E-04  2362   0.151E-02    0.245E-02
RMM:  16    -0.717100230107E+03    0.27634E-04   -0.14273E-04  2124   0.908E-03    0.298E-02
RMM:  17    -0.717100206214E+03    0.23893E-04   -0.45043E-05  2112   0.614E-03    0.149E-02
RMM:  18    -0.717100190612E+03    0.15602E-04   -0.18543E-04  2349   0.101E-02    0.205E-02
RMM:  19    -0.717100177364E+03    0.13248E-04   -0.25133E-05  1987   0.477E-03    0.116E-02
RMM:  20    -0.717100173995E+03    0.33689E-05   -0.21119E-05  2102   0.348E-03    0.654E-03
RMM:  21    -0.717100174501E+03   -0.50560E-06   -0.16801E-05  2164   0.283E-03    0.715E-03
RMM:  22    -0.717100172639E+03    0.18614E-05   -0.37651E-06  2094   0.164E-03    0.301E-03
RMM:  23    -0.717100172394E+03    0.24503E-06   -0.69882E-06  2219   0.186E-03    0.228E-03
RMM:  24    -0.717100172326E+03    0.68227E-07   -0.51162E-07  1925   0.770E-04    0.127E-03
RMM:  25    -0.717100172336E+03   -0.10146E-07   -0.38651E-07  1896   0.475E-04    0.689E-04
RMM:  26    -0.717100172294E+03    0.42299E-07   -0.11585E-07  1700   0.273E-04    0.323E-04
RMM:  27    -0.717100172281E+03    0.13039E-07   -0.27306E-08  1333   0.151E-04    0.178E-04
RMM:  28    -0.717100172302E+03   -0.21464E-07   -0.59180E-09  1127   0.826E-05    0.115E-04
RMM:  29    -0.717100172301E+03    0.13461E-08   -0.29352E-09  1043   0.619E-05
  14 F= -.71710017E+03 E0= -.71709294E+03  d E =-.172489E+00
 trial-energy change:   -0.172489  1 .order   -0.171953   -0.227501   -0.116405
 step:   4.5149(harm=  4.6443)  dis= 0.10206  next Energy=  -717.158357 (dE=-0.231E+00)
 bond charge predicted
       N       E                     dE             d eps       ncg     rms          rms(c)
DAV:   1    -0.717019460332E+03    0.80712E-01   -0.38036E+01  1800   0.821E+00    0.181E+00
RMM:   2    -0.717141531959E+03   -0.12207E+00   -0.14642E+00  1961   0.173E+00    0.449E-01
RMM:   3    -0.717167353726E+03   -0.25822E-01   -0.32242E-01  2252   0.758E-01    0.763E-01
RMM:   4    -0.717168130533E+03   -0.77681E-03   -0.40507E-02  2139   0.254E-01    0.580E-01
RMM:   5    -0.717163130814E+03    0.49997E-02   -0.12812E-02  1955   0.136E-01    0.252E-01
RMM:   6    -0.717163532011E+03   -0.40120E-03   -0.27186E-02  1991   0.154E-01    0.289E-01
RMM:   7    -0.717161491659E+03    0.20404E-02   -0.31825E-03  1934   0.617E-02    0.151E-01
RMM:   8    -0.717161474303E+03    0.17356E-04   -0.15677E-02  2183   0.984E-02    0.149E-01
RMM:   9    -0.717160988418E+03    0.48588E-03   -0.78008E-04  2057   0.340E-02    0.114E-01
RMM:  10    -0.717160678278E+03    0.31014E-03   -0.30911E-04  1945   0.191E-02    0.107E-01
RMM:  11    -0.717159983382E+03    0.69490E-03   -0.16641E-03  2197   0.303E-02    0.135E-01
RMM:  12    -0.717159794798E+03    0.18858E-03   -0.26370E-04  2079   0.149E-02    0.110E-01
RMM:  13    -0.717159535708E+03    0.25909E-03   -0.60507E-04  2168   0.187E-02    0.599E-02
RMM:  14    -0.717159405824E+03    0.12988E-03   -0.25966E-04  2091   0.133E-02    0.167E-02
RMM:  15    -0.717159335793E+03    0.70031E-04   -0.23888E-04  2111   0.114E-02    0.273E-02
RMM:  16    -0.717159292594E+03    0.43199E-04   -0.11100E-04  2167   0.737E-03    0.231E-02
RMM:  17    -0.717159277357E+03    0.15237E-04   -0.39240E-05  2141   0.555E-03    0.110E-02
RMM:  18    -0.717159263565E+03    0.13792E-04   -0.12887E-04  2252   0.837E-03    0.180E-02
RMM:  19    -0.717159253042E+03    0.10523E-04   -0.20416E-05  1940   0.442E-03    0.119E-02
RMM:  20    -0.717159250209E+03    0.28325E-05   -0.19446E-05  2078   0.349E-03    0.634E-03
RMM:  21    -0.717159250560E+03   -0.35119E-06   -0.14793E-05  2172   0.278E-03    0.760E-03
RMM:  22    -0.717159248558E+03    0.20025E-05   -0.41639E-06  2093   0.165E-03    0.304E-03
RMM:  23    -0.717159248260E+03    0.29824E-06   -0.51082E-06  2163   0.164E-03    0.151E-03
RMM:  24    -0.717159248317E+03   -0.57036E-07   -0.39790E-07  2002   0.713E-04    0.117E-03
RMM:  25    -0.717159248330E+03   -0.13075E-07   -0.17128E-07  1821   0.365E-04    0.820E-04
RMM:  26    -0.717159248271E+03    0.58440E-07   -0.58476E-08  1571   0.213E-04    0.534E-04
RMM:  27    -0.717159248249E+03    0.22737E-07   -0.39715E-08  1381   0.160E-04    0.300E-04
RMM:  28    -0.717159248279E+03   -0.30293E-07   -0.44781E-08  1361   0.161E-04    0.206E-04
RMM:  29    -0.717159248280E+03   -0.13715E-08   -0.58506E-09  1067   0.954E-05
  15 F= -.71715925E+03 E0= -.71715264E+03  d E =-.231565E+00
 curvature:  -4.37 expect dE=-0.263E+00 dE for cont linesearch -0.120E-05
 trial: gam= 0.46861 g(F)=  0.591E-01 g(S)=  0.106E-02 ort = 0.228E-03 (trialstep = 0.272E+01)
 search vector abs. value=  0.102E+00
 bond charge predicted
       N       E                     dE             d eps       ncg     rms          rms(c)
DAV:   1    -0.717106700367E+03    0.52548E-01   -0.49888E+01  1864   0.876E+00    0.182E+00
RMM:   2    -0.717254663781E+03   -0.14796E+00   -0.17187E+00  1956   0.173E+00    0.462E-01
RMM:   3    -0.717281929809E+03   -0.27266E-01   -0.35227E-01  2252   0.748E-01    0.721E-01
RMM:   4    -0.717283002536E+03   -0.10727E-02   -0.43529E-02  2166   0.238E-01    0.563E-01
RMM:   5    -0.717277584346E+03    0.54182E-02   -0.18704E-02  1944   0.145E-01    0.158E-01
RMM:   6    -0.717277395251E+03    0.18910E-03   -0.91945E-03  2065   0.103E-01    0.150E-01
RMM:   7    -0.717276917541E+03    0.47771E-03   -0.12902E-03  2143   0.406E-02    0.101E-01
RMM:   8    -0.717276783325E+03    0.13422E-03   -0.28178E-03  2001   0.461E-02    0.520E-02
RMM:   9    -0.717276710222E+03    0.73103E-04   -0.26613E-04  1937   0.211E-02    0.204E-02
RMM:  10    -0.717276696560E+03    0.13662E-04   -0.21094E-04  1961   0.135E-02    0.129E-02
RMM:  11    -0.717276684172E+03    0.12388E-04   -0.64566E-05  1971   0.805E-03    0.236E-02
RMM:  12    -0.717276681791E+03    0.23809E-05   -0.27596E-05  2244   0.463E-03    0.207E-02
RMM:  13    -0.717276660217E+03    0.21574E-04   -0.38745E-05  1956   0.538E-03    0.649E-03
RMM:  14    -0.717276653034E+03    0.71829E-05   -0.15010E-05  2244   0.302E-03    0.904E-03
RMM:  15    -0.717276648032E+03    0.50014E-05   -0.45923E-06  2060   0.187E-03    0.378E-03
RMM:  16    -0.717276643135E+03    0.48979E-05   -0.12241E-05  2139   0.239E-03    0.737E-03
RMM:  17    -0.717276641526E+03    0.16086E-05   -0.40203E-06  2229   0.154E-03    0.305E-03
RMM:  18    -0.717276641174E+03    0.35237E-06   -0.24915E-06  2052   0.130E-03    0.422E-03
RMM:  19    -0.717276640895E+03    0.27903E-06   -0.10819E-06  2137   0.830E-04    0.203E-03
RMM:  20    -0.717276640950E+03   -0.55417E-07   -0.11606E-06  2099   0.758E-04    0.339E-04
RMM:  21    -0.717276640945E+03    0.44929E-08   -0.90703E-08  1624   0.316E-04
  16 F= -.71727664E+03 E0= -.71727070E+03  d E =-.117393E+00
 trial-energy change:   -0.117393  1 .order   -0.117326   -0.163776   -0.070875
 step:   4.7904(harm=  4.7904)  dis= 0.06808  next Energy=  -717.303609 (dE=-0.144E+00)
 bond charge predicted
       N       E                     dE             d eps       ncg     rms          rms(c)
DAV:   1    -0.717209242950E+03    0.67398E-01   -0.29097E+01  1880   0.664E+00    0.136E+00
RMM:   2    -0.717290933343E+03   -0.81690E-01   -0.94742E-01  1949   0.129E+00    0.346E-01
RMM:   3    -0.717306065163E+03   -0.15132E-01   -0.19854E-01  2255   0.563E-01    0.548E-01
RMM:   4    -0.717306724307E+03   -0.65914E-03   -0.24268E-02  2161   0.179E-01    0.426E-01
RMM:   5    -0.717303655365E+03    0.30689E-02   -0.10834E-02  1949   0.110E-01    0.119E-01
RMM:   6    -0.717303612155E+03    0.43210E-04   -0.56905E-03  2024   0.800E-02    0.125E-01
RMM:   7    -0.717303301081E+03    0.31107E-03   -0.71875E-04  2153   0.315E-02    0.832E-02
RMM:   8    -0.717303214445E+03    0.86636E-04   -0.20075E-03  2013   0.376E-02    0.470E-02
RMM:   9    -0.717303161748E+03    0.52697E-04   -0.15578E-04  1937   0.164E-02    0.220E-02
RMM:  10    -0.717303147820E+03    0.13928E-04   -0.15504E-04  1977   0.108E-02    0.830E-03
RMM:  11    -0.717303142131E+03    0.56889E-05   -0.30892E-05  2002   0.555E-03    0.169E-02
RMM:  12    -0.717303140534E+03    0.15974E-05   -0.13672E-05  2247   0.319E-03    0.154E-02
RMM:  13    -0.717303129431E+03    0.11102E-04   -0.16983E-05  1941   0.353E-03    0.359E-03
RMM:  14    -0.717303124821E+03    0.46102E-05   -0.77139E-06  2238   0.211E-03    0.405E-03
RMM:  15    -0.717303120902E+03    0.39190E-05   -0.39590E-06  2025   0.148E-03    0.320E-03
RMM:  16    -0.717303118980E+03    0.19223E-05   -0.49409E-06  2121   0.140E-03    0.278E-03
RMM:  17    -0.717303118221E+03    0.75903E-06   -0.16087E-06  2134   0.966E-04    0.262E-03
RMM:  18    -0.717303117922E+03    0.29901E-06   -0.11983E-06  2156   0.750E-04    0.175E-03
RMM:  19    -0.717303117956E+03   -0.34277E-07   -0.40577E-07  2045   0.456E-04    0.116E-03
RMM:  20    -0.717303117995E+03   -0.39399E-07   -0.86974E-08  1540   0.255E-04    0.114E-03
RMM:  21    -0.717303118005E+03   -0.95060E-08   -0.14148E-07  1716   0.346E-04    0.295E-04
RMM:  22    -0.717303117986E+03    0.18590E-07   -0.99726E-08  1233   0.172E-04    0.241E-04
RMM:  23    -0.717303117970E+03    0.16258E-07    0.14715E-08  1169   0.114E-04    0.664E-05
RMM:  24    -0.717303117969E+03    0.62209E-09   -0.86030E-08  1068   0.987E-05
  17 F= -.71730312E+03 E0= -.71729771E+03  d E =-.143870E+00
 curvature:  -4.05 expect dE=-0.161E+00 dE for cont linesearch -0.111E-04
 trial: gam= 0.67668 g(F)=  0.388E-01 g(S)=  0.105E-02 ort =-0.527E-03 (trialstep = 0.313E+01)
 search vector abs. value=  0.858E-01
 bond charge predicted
       N       E                     dE             d eps       ncg     rms          rms(c)
DAV:   1    -0.717252742294E+03    0.50376E-01   -0.43880E+01  1808   0.868E+00    0.204E+00
RMM:   2    -0.717363509865E+03   -0.11077E+00   -0.16169E+00  1987   0.177E+00    0.498E-01
RMM:   3    -0.717389681453E+03   -0.26172E-01   -0.35680E-01  2243   0.784E-01    0.738E-01
RMM:   4    -0.717390408256E+03   -0.72680E-03   -0.45700E-02  2126   0.262E-01    0.568E-01
RMM:   5    -0.717386106051E+03    0.43022E-02   -0.16086E-02  1952   0.151E-01    0.278E-01
RMM:   6    -0.717385241363E+03    0.86469E-03   -0.88448E-03  2215   0.974E-02    0.165E-01
RMM:   7    -0.717384385939E+03    0.85542E-03   -0.22868E-03  1973   0.555E-02    0.639E-02
RMM:   8    -0.717384219431E+03    0.16651E-03   -0.13796E-03  2066   0.363E-02    0.352E-02
RMM:   9    -0.717384117330E+03    0.10210E-03   -0.30477E-04  2210   0.185E-02    0.233E-02
RMM:  10    -0.717384042912E+03    0.74417E-04   -0.15672E-04  2107   0.119E-02    0.305E-02
RMM:  11    -0.717383896844E+03    0.14607E-03   -0.14183E-04  2094   0.908E-03    0.321E-02
RMM:  12    -0.717383829232E+03    0.67612E-04   -0.72898E-05  2094   0.687E-03    0.211E-02
RMM:  13    -0.717383699334E+03    0.12990E-03   -0.28504E-04  2369   0.114E-02    0.180E-02
RMM:  14    -0.717383642989E+03    0.56345E-04   -0.13953E-04  2302   0.814E-03    0.156E-02
RMM:  15    -0.717383630273E+03    0.12716E-04   -0.39160E-05  1957   0.588E-03    0.649E-03
RMM:  16    -0.717383624698E+03    0.55752E-05   -0.32696E-05  2113   0.445E-03    0.114E-02
RMM:  17    -0.717383621697E+03    0.30012E-05   -0.10368E-05  2087   0.304E-03    0.576E-03
RMM:  18    -0.717383620975E+03    0.72196E-06   -0.96036E-06  2090   0.256E-03    0.319E-03
RMM:  19    -0.717383620697E+03    0.27839E-06   -0.27597E-06  2153   0.141E-03    0.229E-03
RMM:  20    -0.717383620300E+03    0.39616E-06   -0.93079E-07  2061   0.803E-04    0.105E-03
RMM:  21    -0.717383620102E+03    0.19882E-06   -0.35368E-07  2019   0.500E-04    0.909E-04
RMM:  22    -0.717383620039E+03    0.62642E-07   -0.19837E-07  1965   0.314E-04    0.114E-03
RMM:  23    -0.717383619916E+03    0.12276E-06   -0.13711E-07  1730   0.333E-04    0.393E-04
RMM:  24    -0.717383619909E+03    0.68576E-08   -0.20652E-08  1456   0.196E-04
  18 F= -.71738362E+03 E0= -.71737879E+03  d E =-.805019E-01
 trial-energy change:   -0.080502  1 .order   -0.080246   -0.123552   -0.036941
 step:   4.4351(harm=  4.4678)  dis= 0.05672  next Energy=  -717.391324 (dE=-0.882E-01)
 bond charge predicted
       N       E                     dE             d eps       ncg     rms          rms(c)
DAV:   1    -0.717369444238E+03    0.14176E-01   -0.76060E+00  1920   0.361E+00    0.831E-01
RMM:   2    -0.717388461633E+03   -0.19017E-01   -0.27120E-01  1989   0.732E-01    0.205E-01
RMM:   3    -0.717392747374E+03   -0.42857E-02   -0.59446E-02  2232   0.322E-01    0.303E-01
RMM:   4    -0.717392884353E+03   -0.13698E-03   -0.74519E-03  2120   0.107E-01    0.232E-01
RMM:   5    -0.717392178743E+03    0.70561E-03   -0.27845E-03  1948   0.627E-02    0.111E-01
RMM:   6    -0.717392066484E+03    0.11226E-03   -0.17074E-03  2112   0.432E-02    0.719E-02
RMM:   7    -0.717391903342E+03    0.16314E-03   -0.50925E-04  1993   0.267E-02    0.297E-02
RMM:   8    -0.717391876273E+03    0.27069E-04   -0.25244E-04  2130   0.155E-02    0.152E-02
RMM:   9    -0.717391858608E+03    0.17666E-04   -0.61299E-05  2171   0.852E-03    0.106E-02
RMM:  10    -0.717391850072E+03    0.85354E-05   -0.49700E-05  2089   0.695E-03    0.199E-02
RMM:  11    -0.717391828653E+03    0.21419E-04   -0.20663E-05  1974   0.407E-03    0.126E-02
RMM:  12    -0.717391810761E+03    0.17892E-04   -0.33319E-05  1994   0.447E-03    0.744E-03
RMM:  13    -0.717391793019E+03    0.17742E-04   -0.20709E-05  2131   0.317E-03    0.791E-03
RMM:  14    -0.717391780235E+03    0.12784E-04   -0.52479E-05  2335   0.471E-03    0.509E-03
RMM:  15    -0.717391777590E+03    0.26457E-05   -0.55472E-06  2080   0.208E-03    0.222E-03
RMM:  16    -0.717391777076E+03    0.51319E-06   -0.63998E-06  2124   0.197E-03    0.468E-03
WARNING in EDDRMM: call to ZHEGV failed, returncode =   8  4     37
RMM:  17    -0.717391776441E+03    0.63561E-06   -0.13260E-06  2024   0.108E-03    0.252E-03
RMM:  18    -0.717391776584E+03   -0.14354E-06   -0.26035E-06  2082   0.128E-03    0.101E-03
RMM:  19    -0.717391776731E+03   -0.14627E-06   -0.52754E-07  2143   0.609E-04    0.116E-03
RMM:  20    -0.717391776477E+03    0.25335E-06   -0.20206E-07  1822   0.425E-04    0.447E-04
RMM:  21    -0.717391776382E+03    0.95442E-07   -0.62826E-08  1820   0.264E-04    0.509E-04
RMM:  22    -0.717391776437E+03   -0.54890E-07   -0.13960E-07  1412   0.201E-04    0.412E-04
RMM:  23    -0.717391776415E+03    0.21282E-07    0.19274E-09  1253   0.127E-04    0.222E-04
RMM:  24    -0.717391776393E+03    0.22948E-07   -0.48942E-08  1126   0.101E-04    0.148E-04
RMM:  25    -0.717391776399E+03   -0.61482E-08    0.18635E-08  1086   0.881E-05
  19 F= -.71739178E+03 E0= -.71738717E+03  d E =-.886584E-01
 curvature:  -4.85 expect dE=-0.151E+00 dE for cont linesearch -0.277E-04
 trial: gam= 0.73463 g(F)=  0.303E-01 g(S)=  0.862E-03 ort = 0.700E-03 (trialstep = 0.339E+01)
 search vector abs. value=  0.785E-01
 bond charge predicted
       N       E                     dE             d eps       ncg     rms          rms(c)
DAV:   1    -0.717329800643E+03    0.61976E-01   -0.38648E+01  1840   0.829E+00    0.171E+00
RMM:   2    -0.717450915101E+03   -0.12111E+00   -0.13654E+00  1996   0.167E+00    0.352E-01
RMM:   3    -0.717474524068E+03   -0.23609E-01   -0.28939E-01  2251   0.724E-01    0.749E-01
RMM:   4    -0.717475714475E+03   -0.11904E-02   -0.38243E-02  2155   0.238E-01    0.572E-01
RMM:   5    -0.717472177249E+03    0.35372E-02   -0.61198E-03  1976   0.100E-01    0.352E-01
RMM:   6    -0.717470566924E+03    0.16103E-02   -0.20428E-02  2000   0.132E-01    0.124E-01
RMM:   7    -0.717470395987E+03    0.17094E-03   -0.17076E-03  1981   0.561E-02    0.127E-01
RMM:   8    -0.717470081885E+03    0.31410E-03   -0.52768E-03  2126   0.577E-02    0.710E-02
RMM:   9    -0.717469913466E+03    0.16842E-03   -0.32846E-04  1986   0.225E-02    0.397E-02
RMM:  10    -0.717469842720E+03    0.70746E-04   -0.23372E-04  2017   0.133E-02    0.199E-02
RMM:  11    -0.717469821955E+03    0.20765E-04   -0.73848E-05  2079   0.851E-03    0.427E-02
RMM:  12    -0.717469792314E+03    0.29642E-04   -0.44315E-05  2113   0.510E-03    0.320E-02
RMM:  13    -0.717469749365E+03    0.42949E-04   -0.88411E-05  2042   0.762E-03    0.731E-03
RMM:  14    -0.717469729647E+03    0.19718E-04   -0.40755E-05  2107   0.470E-03    0.118E-02
RMM:  15    -0.717469720056E+03    0.95907E-05   -0.31106E-05  2216   0.368E-03    0.729E-03
RMM:  16    -0.717469715204E+03    0.48520E-05   -0.88176E-06  2049   0.263E-03    0.501E-03
RMM:  17    -0.717469716632E+03   -0.14278E-05   -0.16910E-05  2223   0.313E-03    0.127E-02
RMM:  18    -0.717469713632E+03    0.30002E-05   -0.28592E-06  2008   0.166E-03    0.760E-03
RMM:  19    -0.717469711664E+03    0.19675E-05   -0.86780E-06  2205   0.206E-03    0.270E-03
RMM:  20    -0.717469711672E+03   -0.81563E-08   -0.10353E-06  2147   0.999E-04    0.415E-03
RMM:  21    -0.717469711577E+03    0.95581E-07   -0.19798E-06  2136   0.120E-03    0.133E-03
RMM:  22    -0.717469711611E+03   -0.34612E-07   -0.51664E-07  2187   0.610E-04    0.216E-03
RMM:  23    -0.717469711460E+03    0.15164E-06   -0.16796E-07  1719   0.391E-04    0.566E-04
RMM:  24    -0.717469711419E+03    0.40342E-07   -0.15661E-07  1640   0.331E-04    0.421E-04
RMM:  25    -0.717469711430E+03   -0.10416E-07   -0.15002E-08  1169   0.159E-04    0.351E-04
RMM:  26    -0.717469711433E+03   -0.35579E-08   -0.68252E-09  1087   0.981E-05
  20 F= -.71746971E+03 E0= -.71746548E+03  d E =-.779350E-01
 trial-energy change:   -0.077935  1 .order   -0.078016   -0.107441   -0.048591
 step:   6.1937(harm=  6.1937)  dis= 0.07505  next Energy=  -717.489852 (dE=-0.981E-01)
 bond charge predicted
       N       E                     dE             d eps       ncg     rms          rms(c)
DAV:   1    -0.717394775426E+03    0.74936E-01   -0.26360E+01  1832   0.686E+00    0.141E+00
RMM:   2    -0.717476859315E+03   -0.82084E-01   -0.92457E-01  1998   0.139E+00    0.288E-01
RMM:   3    -0.717493225859E+03   -0.16367E-01   -0.19869E-01  2244   0.600E-01    0.621E-01
RMM:   4    -0.717494020425E+03   -0.79457E-03   -0.25736E-02  2157   0.198E-01    0.475E-01
RMM:   5    -0.717491663731E+03    0.23567E-02   -0.39903E-03  1973   0.817E-02    0.300E-01
RMM:   6    -0.717490546415E+03    0.11173E-02   -0.15151E-02  1991   0.113E-01    0.110E-01
RMM:   7    -0.717490407821E+03    0.13859E-03   -0.11693E-03  1951   0.473E-02    0.110E-01
RMM:   8    -0.717490180022E+03    0.22780E-03   -0.40020E-03  2135   0.491E-02    0.614E-02
RMM:   9    -0.717490062006E+03    0.11802E-03   -0.22850E-04  2011   0.189E-02    0.371E-02
RMM:  10    -0.717490005931E+03    0.56076E-04   -0.15163E-04  2050   0.108E-02    0.212E-02
RMM:  11    -0.717489987382E+03    0.18549E-04   -0.57605E-05  2175   0.665E-03    0.338E-02
RMM:  12    -0.717489969486E+03    0.17896E-04   -0.17215E-05  2114   0.337E-03    0.265E-02
RMM:  13    -0.717489937991E+03    0.31494E-04   -0.63141E-05  2016   0.637E-03    0.566E-03
RMM:  14    -0.717489926311E+03    0.11681E-04   -0.21304E-05  2215   0.347E-03    0.639E-03
RMM:  15    -0.717489917225E+03    0.90854E-05   -0.21774E-05  2138   0.300E-03    0.386E-03
RMM:  16    -0.717489915282E+03    0.19430E-05   -0.43325E-06  2163   0.179E-03    0.364E-03
RMM:  17    -0.717489915754E+03   -0.47171E-06   -0.72102E-06  2218   0.209E-03    0.984E-03
RMM:  18    -0.717489913579E+03    0.21748E-05   -0.25002E-06  1981   0.144E-03    0.487E-03
RMM:  19    -0.717489912831E+03    0.74819E-06   -0.47422E-06  2258   0.151E-03    0.173E-03
RMM:  20    -0.717489912809E+03    0.22133E-07   -0.57219E-07  2051   0.752E-04    0.288E-03
RMM:  21    -0.717489912885E+03   -0.76456E-07   -0.15146E-06  2149   0.101E-03    0.175E-03
RMM:  22    -0.717489912774E+03    0.11106E-06   -0.25380E-07  1919   0.430E-04    0.138E-03
RMM:  23    -0.717489912706E+03    0.67801E-07   -0.24274E-07  1767   0.375E-04    0.515E-04
RMM:  24    -0.717489912700E+03    0.65411E-08   -0.24825E-08  1258   0.188E-04
  21 F= -.71748991E+03 E0= -.71748596E+03  d E =-.981363E-01
 curvature:  -7.67 expect dE=-0.292E+00 dE for cont linesearch -0.125E-06
 trial: gam= 1.19566 g(F)=  0.377E-01 g(S)=  0.356E-03 ort =-0.358E-04 (trialstep = 0.207E+01)
 search vector abs. value=  0.150E+00
 bond charge predicted
       N       E                     dE             d eps       ncg     rms          rms(c)
DAV:   1    -0.717503209955E+03   -0.13297E-01   -0.13961E+01  1904   0.502E+00    0.124E+00
RMM:   2    -0.717548576910E+03   -0.45367E-01   -0.53647E-01  2001   0.107E+00    0.253E-01
RMM:   3    -0.717560616252E+03   -0.12039E-01   -0.14159E-01  2294   0.472E-01    0.592E-01
RMM:   4    -0.717560483550E+03    0.13270E-03   -0.13476E-02  2117   0.146E-01    0.430E-01
RMM:   5    -0.717559082678E+03    0.14009E-02   -0.20591E-03  2045   0.583E-02    0.318E-01
RMM:   6    -0.717558058024E+03    0.10247E-02   -0.12132E-02  2035   0.896E-02    0.945E-02
RMM:   7    -0.717558327599E+03   -0.26957E-03   -0.17122E-03  2081   0.456E-02    0.128E-01
RMM:   8    -0.717557762424E+03    0.56518E-03   -0.17557E-03  2014   0.318E-02    0.419E-02
RMM:   9    -0.717557776030E+03   -0.13606E-04   -0.63366E-04  2061   0.236E-02    0.229E-02
RMM:  10    -0.717557767434E+03    0.85957E-05   -0.54774E-05  2105   0.854E-03    0.143E-02
RMM:  11    -0.717557758140E+03    0.92940E-05   -0.70243E-05  1941   0.740E-03    0.115E-02
RMM:  12    -0.717557756839E+03    0.13009E-05   -0.13148E-05  2172   0.359E-03    0.707E-03
 num prob RMM:  13    -0.717557755915E+03    0.92440E-06   -0.39217E-06  2118   0.181E-03    0.361E-03
RMM:  14    -0.717557755402E+03    0.51279E-06   -0.25709E-06  2064   0.142E-03    0.282E-03
 num prob RMM:  15    -0.717557755253E+03    0.14862E-06   -0.69530E-07  2176   0.665E-04    0.320E-03
RMM:  16    -0.717557755095E+03    0.15886E-06   -0.45505E-07  1852   0.618E-04    0.889E-04
 num prob RMM:  17    -0.717557755103E+03   -0.89240E-08   -0.14969E-07  1869   0.374E-04    0.105E-03
RMM:  18    -0.717557754974E+03    0.12940E-06   -0.23954E-07  1865   0.366E-04    0.933E-04
 num prob RMM:  19    -0.717557754906E+03    0.68441E-07   -0.33942E-07  1991   0.439E-04    0.467E-04
RMM:  20    -0.717557754914E+03   -0.80072E-08   -0.91732E-08  1511   0.227E-04
  22 F= -.71755775E+03 E0= -.71755391E+03  d E =-.678422E-01
 trial-energy change:   -0.067842  1 .order   -0.067487   -0.078565   -0.056410
 step:   6.1534(harm=  7.3242)  dis= 0.12184  next Energy=  -717.616331 (dE=-0.126E+00)
 bond charge predicted
       N       E                     dE             d eps       ncg     rms          rms(c)
DAV:   1    -0.717400010358E+03    0.15774E+00   -0.54643E+01  1848   0.991E+00    0.250E+00
RMM:   2    -0.717584960336E+03   -0.18495E+00   -0.21944E+00  1993   0.216E+00    0.518E-01
RMM:   3    -0.717633690807E+03   -0.48730E-01   -0.57554E-01  2317   0.946E-01    0.118E+00
RMM:   4    -0.717632338868E+03    0.13519E-02   -0.49836E-02  2098   0.282E-01    0.846E-01
RMM:   5    -0.717626209705E+03    0.61292E-02   -0.89856E-03  2030   0.120E-01    0.594E-01
RMM:   6    -0.717622626401E+03    0.35833E-02   -0.42715E-02  2036   0.173E-01    0.176E-01
RMM:   7    -0.717623454082E+03   -0.82768E-03   -0.63049E-03  2098   0.878E-02    0.235E-01
RMM:   8    -0.717621563964E+03    0.18901E-02   -0.66339E-03  1982   0.654E-02    0.642E-02
RMM:   9    -0.717621645410E+03   -0.81446E-04   -0.16840E-03  2118   0.430E-02    0.396E-02
RMM:  10    -0.717621624666E+03    0.20743E-04   -0.18701E-04  2063   0.155E-02    0.259E-02
RMM:  11    -0.717621592044E+03    0.32622E-04   -0.25111E-04  1923   0.144E-02    0.200E-02
RMM:  12    -0.717621583692E+03    0.83519E-05   -0.48073E-05  2057   0.719E-03    0.128E-02
RMM:  13    -0.717621581545E+03    0.21477E-05   -0.19588E-05  2237   0.376E-03    0.706E-03
RMM:  14    -0.717621580612E+03    0.93240E-06   -0.13680E-05  2015   0.322E-03    0.624E-03
RMM:  15    -0.717621579560E+03    0.10521E-05   -0.30305E-06  2179   0.163E-03    0.639E-03
RMM:  16    -0.717621578477E+03    0.10827E-05   -0.29501E-06  2003   0.144E-03    0.118E-03
RMM:  17    -0.717621578392E+03    0.85627E-07   -0.72711E-07  2109   0.821E-04    0.161E-03
RMM:  18    -0.717621578196E+03    0.19600E-06   -0.40948E-07  2061   0.493E-04    0.109E-03
RMM:  19    -0.717621578170E+03    0.25953E-07   -0.16334E-07  1981   0.326E-04    0.135E-03
RMM:  20    -0.717621578089E+03    0.81051E-07   -0.92130E-08  1750   0.252E-04    0.103E-03
RMM:  21    -0.717621578045E+03    0.43361E-07   -0.39970E-08  1460   0.165E-04    0.904E-04
RMM:  22    -0.717621578016E+03    0.28973E-07   -0.15403E-08  1192   0.117E-04    0.859E-04
RMM:  23    -0.717621577972E+03    0.44100E-07   -0.51707E-08  1436   0.172E-04    0.372E-04
RMM:  24    -0.717621577955E+03    0.16917E-07   -0.35934E-08  1440   0.149E-04    0.143E-04
RMM:  25    -0.717621577963E+03   -0.79417E-08   -0.98343E-09  1123   0.904E-05
  23 F= -.71762158E+03 E0= -.71761792E+03  d E =-.131665E+00
 curvature: -13.74 expect dE=-0.726E+00 dE for cont linesearch -0.125E-02
 trial: gam= 1.26144 g(F)=  0.523E-01 g(S)=  0.557E-03 ort = 0.369E-02 (trialstep = 0.144E+01)
 search vector abs. value=  0.301E+00
 bond charge predicted
       N       E                     dE             d eps       ncg     rms          rms(c)
DAV:   1    -0.717637694194E+03   -0.16116E-01   -0.16613E+01  1856   0.539E+00    0.122E+00
RMM:   2    -0.717686880000E+03   -0.49186E-01   -0.61188E-01  2001   0.113E+00    0.271E-01
RMM:   3    -0.717698596704E+03   -0.11717E-01   -0.14703E-01  2286   0.495E-01    0.524E-01
RMM:   4    -0.717698698656E+03   -0.10195E-03   -0.15589E-02  2101   0.156E-01    0.392E-01
RMM:   5    -0.717696791166E+03    0.19075E-02   -0.41373E-03  1953   0.799E-02    0.222E-01
RMM:   6    -0.717696306955E+03    0.48421E-03   -0.70919E-03  1948   0.818E-02    0.832E-02
RMM:   7    -0.717696333053E+03   -0.26099E-04   -0.13107E-03  2177   0.418E-02    0.965E-02
RMM:   8    -0.717696039080E+03    0.29397E-03   -0.17875E-03  1955   0.386E-02    0.213E-02
RMM:   9    -0.717696042150E+03   -0.30700E-05   -0.23948E-04  2162   0.190E-02    0.272E-02
RMM:  10    -0.717696020750E+03    0.21400E-04   -0.41119E-05  2102   0.853E-03    0.193E-02
RMM:  11    -0.717695998538E+03    0.22212E-04   -0.25145E-05  2148   0.444E-03    0.205E-02
RMM:  12    -0.717695977868E+03    0.20670E-04   -0.23766E-05  1986   0.393E-03    0.115E-02
RMM:  13    -0.717695962685E+03    0.15182E-04   -0.31548E-05  2131   0.420E-03    0.560E-03
RMM:  14    -0.717695947888E+03    0.14798E-04   -0.28117E-05  2127   0.381E-03    0.915E-03
RMM:  15    -0.717695940524E+03    0.73641E-05   -0.28296E-05  2237   0.364E-03    0.470E-03
RMM:  16    -0.717695939862E+03    0.66153E-06   -0.28756E-06  1987   0.178E-03    0.357E-03
RMM:  17    -0.717695939085E+03    0.77739E-06   -0.33215E-06  2181   0.140E-03    0.480E-03
RMM:  18    -0.717695938704E+03    0.38043E-06   -0.23398E-06  2153   0.119E-03    0.144E-03
WARNING in EDDRMM: call to ZHEGV failed, returncode =   8  4     37
RMM:  19    -0.717695938507E+03    0.19707E-06   -0.60365E-07  2096   0.629E-04    0.125E-03
RMM:  20    -0.717695938343E+03    0.16406E-06   -0.32855E-07  2016   0.426E-04    0.888E-04
RMM:  21    -0.717695938398E+03   -0.55261E-07   -0.39234E-07  2098   0.457E-04    0.754E-04
RMM:  22    -0.717695938414E+03   -0.15334E-07   -0.57744E-08  1552   0.239E-04    0.470E-04
RMM:  23    -0.717695938369E+03    0.45045E-07   -0.18754E-08  1213   0.138E-04    0.181E-04
RMM:  24    -0.717695938353E+03    0.16043E-07   -0.24816E-08  1309   0.144E-04    0.135E-04
RMM:  25    -0.717695938362E+03   -0.92077E-08   -0.46526E-09  1105   0.769E-05
  24 F= -.71769594E+03 E0= -.71769225E+03  d E =-.743604E-01
 trial-energy change:   -0.074360  1 .order   -0.073760   -0.082695   -0.064824
 step:   4.6058(harm=  6.6531)  dis= 0.15145  next Energy=  -717.773785 (dE=-0.152E+00)
 bond charge predicted
       N       E                     dE             d eps       ncg     rms          rms(c)
DAV:   1    -0.717497577415E+03    0.19836E+00   -0.80664E+01  1808   0.119E+01    0.276E+00
RMM:   2    -0.717744462991E+03   -0.24689E+00   -0.31094E+00  1995   0.252E+00    0.628E-01
RMM:   3    -0.717803159150E+03   -0.58696E-01   -0.73731E-01  2286   0.111E+00    0.118E+00
RMM:   4    -0.717802725996E+03    0.43315E-03   -0.76843E-02  2088   0.350E-01    0.865E-01
RMM:   5    -0.717792749696E+03    0.99763E-02   -0.24738E-02  1947   0.191E-01    0.451E-01
RMM:   6    -0.717790529893E+03    0.22198E-02   -0.25873E-02  1935   0.166E-01    0.166E-01
RMM:   7    -0.717790618076E+03   -0.88183E-04   -0.69197E-03  2193   0.932E-02    0.174E-01
RMM:   8    -0.717789513238E+03    0.11048E-02   -0.45585E-03  1971   0.625E-02    0.275E-02
RMM:   9    -0.717789628115E+03   -0.11488E-03   -0.18509E-03  2069   0.458E-02    0.670E-02
RMM:  10    -0.717789529099E+03    0.99016E-04   -0.15266E-04  1982   0.171E-02    0.500E-02
RMM:  11    -0.717789366093E+03    0.16301E-03   -0.25653E-04  1904   0.152E-02    0.249E-02
RMM:  12    -0.717789282705E+03    0.83388E-04   -0.10147E-04  2296   0.772E-03    0.319E-02
RMM:  13    -0.717789213363E+03    0.69342E-04   -0.49541E-05  1982   0.580E-03    0.158E-02
RMM:  14    -0.717789121693E+03    0.91670E-04   -0.28057E-04  2373   0.109E-02    0.181E-02
RMM:  15    -0.717789105238E+03    0.16455E-04   -0.31645E-05  2108   0.511E-03    0.504E-03
 num prob RMM:  16    -0.717789101837E+03    0.34006E-05   -0.21148E-05  2065   0.400E-03    0.893E-03
RMM:  17    -0.717789097454E+03    0.43836E-05   -0.11868E-05  2198   0.260E-03    0.624E-03
 num prob RMM:  18    -0.717789095680E+03    0.17733E-05   -0.70355E-06  2089   0.211E-03    0.423E-03
RMM:  19    -0.717789094818E+03    0.86228E-06   -0.26000E-06  2228   0.125E-03    0.245E-03
 num prob RMM:  20    -0.717789094411E+03    0.40705E-06   -0.16130E-06  2135   0.929E-04    0.827E-04
WARNING in EDDRMM: call to ZHEGV failed, returncode =   8  4     37
RMM:  21    -0.717789094463E+03   -0.52394E-07   -0.16722E-06  2146   0.979E-04    0.232E-03
 num prob RMM:  22    -0.717789094118E+03    0.34578E-06   -0.40220E-07  1852   0.595E-04    0.859E-04
 num prob RMM:  23    -0.717789094012E+03    0.10557E-06   -0.62747E-07  1952   0.646E-04    0.836E-04
RMM:  24    -0.717789094073E+03   -0.61318E-07   -0.15102E-07  1646   0.346E-04    0.245E-04
 num prob RMM:  25    -0.717789094076E+03   -0.25575E-08   -0.30875E-08  1435   0.181E-04
  25 F= -.71778909E+03 E0= -.71778536E+03  d E =-.167516E+00
 curvature: -14.73 expect dE=-0.568E+00 dE for cont linesearch -0.584E-02
 ZBRENT: extrapolating
 opt :   5.6189  next Energy=  -717.794627 (dE=-0.173E+00)
 bond charge predicted
       N       E                     dE             d eps       ncg     rms          rms(c)
DAV:   1    -0.717764827502E+03    0.24267E-01   -0.82877E+00  1928   0.380E+00    0.854E-01
RMM:   2    -0.717789479986E+03   -0.24652E-01   -0.30357E-01  2001   0.790E-01    0.195E-01
RMM:   3    -0.717795192646E+03   -0.57127E-02   -0.71918E-02  2283   0.346E-01    0.371E-01
RMM:   4    -0.717795236841E+03   -0.44195E-04   -0.76653E-03  2106   0.109E-01    0.277E-01
RMM:   5    -0.717794284439E+03    0.95240E-03   -0.20087E-03  1955   0.550E-02    0.156E-01
RMM:   6    -0.717794114914E+03    0.16953E-03   -0.43278E-03  1953   0.619E-02    0.685E-02
RMM:   7    -0.717794056363E+03    0.58551E-04   -0.42958E-04  2086   0.275E-02    0.663E-02
RMM:   8    -0.717793931890E+03    0.12447E-03   -0.10521E-03  1988   0.297E-02    0.228E-02
RMM:   9    -0.717793918513E+03    0.13378E-04   -0.65474E-05  1957   0.111E-02    0.155E-02
RMM:  10    -0.717793907133E+03    0.11379E-04   -0.29415E-05  1988   0.604E-03    0.916E-03
RMM:  11    -0.717793904482E+03    0.26515E-05   -0.23707E-05  2158   0.426E-03    0.189E-02
RMM:  12    -0.717793893740E+03    0.10742E-04   -0.72564E-06  2006   0.252E-03    0.121E-02
RMM:  13    -0.717793881106E+03    0.12634E-04   -0.77340E-05  2354   0.634E-03    0.789E-03
RMM:  14    -0.717793878769E+03    0.23369E-05   -0.79932E-06  1896   0.272E-03    0.295E-03
RMM:  15    -0.717793877017E+03    0.17527E-05   -0.22091E-05  2225   0.372E-03    0.815E-03
RMM:  16    -0.717793874611E+03    0.24054E-05   -0.28057E-06  2034   0.149E-03    0.585E-03
 num prob RMM:  17    -0.717793873514E+03    0.10974E-05   -0.37783E-06  2223   0.144E-03    0.342E-03
RMM:  18    -0.717793873167E+03    0.34679E-06   -0.23686E-06  2166   0.119E-03    0.169E-03
 num prob RMM:  19    -0.717793873106E+03    0.60547E-07   -0.29418E-07  2032   0.529E-04    0.168E-03
WARNING in EDDRMM: call to ZHEGV failed, returncode =   6  3     37
RMM:  20    -0.717793873146E+03   -0.39792E-07   -0.36894E-07  1962   0.490E-04    0.568E-04
RMM:  21    -0.717793873015E+03    0.13084E-06   -0.18979E-07  1900   0.354E-04    0.427E-04
RMM:  22    -0.717793872977E+03    0.37817E-07   -0.62842E-08  1610   0.200E-04    0.319E-04
RMM:  23    -0.717793872983E+03   -0.59372E-08   -0.19174E-08  1226   0.122E-04
  26 F= -.71779387E+03 E0= -.71779012E+03  d E =-.172295E+00
 curvature: -13.96 expect dE=-0.759E+00 dE for cont linesearch -0.409E-03
 trial: gam= 1.02486 g(F)=  0.533E-01 g(S)=  0.107E-02 ort =-0.297E-02 (trialstep = 0.188E+01)
 search vector abs. value=  0.365E+00
 bond charge predicted
       N       E                     dE             d eps       ncg     rms          rms(c)
DAV:   1    -0.717771863545E+03    0.22009E-01   -0.25488E+01  1872   0.674E+00    0.140E+00
RMM:   2    -0.717851928238E+03   -0.80065E-01   -0.91881E-01  2004   0.137E+00    0.311E-01
RMM:   3    -0.717868213886E+03   -0.16286E-01   -0.20272E-01  2257   0.585E-01    0.620E-01
RMM:   4    -0.717868612094E+03   -0.39821E-03   -0.24489E-02  2144   0.189E-01    0.458E-01
RMM:   5    -0.717865934415E+03    0.26777E-02   -0.49220E-03  1975   0.854E-02    0.271E-01
RMM:   6    -0.717865847808E+03    0.86606E-04   -0.19209E-02  2011   0.122E-01    0.158E-01
RMM:   7    -0.717865380190E+03    0.46762E-03   -0.10738E-03  2014   0.441E-02    0.129E-01
RMM:   8    -0.717865026911E+03    0.35328E-03   -0.59963E-03  2117   0.542E-02    0.506E-02
RMM:   9    -0.717864907865E+03    0.11905E-03   -0.33008E-04  1927   0.208E-02    0.254E-02
RMM:  10    -0.717864892098E+03    0.15767E-04   -0.20092E-04  2022   0.123E-02    0.821E-03
RMM:  11    -0.717864890999E+03    0.10995E-05   -0.50350E-05  2294   0.636E-03    0.146E-02
RMM:  12    -0.717864888689E+03    0.23095E-05   -0.56935E-06  2137   0.264E-03    0.927E-03
RMM:  13    -0.717864885254E+03    0.34348E-05   -0.54790E-06  1953   0.216E-03    0.372E-03
RMM:  14    -0.717864883984E+03    0.12707E-05   -0.42149E-06  2138   0.153E-03    0.437E-03
RMM:  15    -0.717864883472E+03    0.51221E-06   -0.27102E-06  2001   0.130E-03    0.270E-03
RMM:  16    -0.717864883467E+03    0.44056E-08   -0.15642E-06  2273   0.905E-04    0.335E-03
WARNING in EDDRMM: call to ZHEGV failed, returncode =   8  4     37
RMM:  17    -0.717864883025E+03    0.44204E-06   -0.71271E-07  1973   0.711E-04    0.140E-03
RMM:  18    -0.717864882914E+03    0.11114E-06   -0.56406E-07  1995   0.605E-04    0.268E-04
RMM:  19    -0.717864882898E+03    0.16313E-07   -0.40232E-08  1466   0.260E-04    0.411E-04
RMM:  20    -0.717864882881E+03    0.16527E-07   -0.21084E-08  1271   0.147E-04    0.443E-04
RMM:  21    -0.717864882872E+03    0.92587E-08   -0.20339E-08  1229   0.116E-04
  27 F= -.71786488E+03 E0= -.71786102E+03  d E =-.710099E-01
 trial-energy change:   -0.071010  1 .order   -0.068191   -0.096340   -0.040043
 step:   2.8013(harm=  3.2147)  dis= 0.09981  next Energy=  -717.875052 (dE=-0.812E-01)
 bond charge predicted
       N       E                     dE             d eps       ncg     rms          rms(c)
DAV:   1    -0.717853800415E+03    0.11082E-01   -0.61683E+00  1928   0.331E+00    0.689E-01
RMM:   2    -0.717873351822E+03   -0.19551E-01   -0.22434E-01  2000   0.675E-01    0.153E-01
RMM:   3    -0.717877275826E+03   -0.39240E-02   -0.48898E-02  2255   0.286E-01    0.305E-01
RMM:   4    -0.717877344972E+03   -0.69146E-04   -0.57457E-03  2145   0.915E-02    0.226E-01
RMM:   5    -0.717876684834E+03    0.66014E-03   -0.11771E-03  1978   0.413E-02    0.132E-01
RMM:   6    -0.717876727529E+03   -0.42694E-04   -0.51652E-03  2013   0.624E-02    0.896E-02
RMM:   7    -0.717876574888E+03    0.15264E-03   -0.27289E-04  1967   0.221E-02    0.696E-02
RMM:   8    -0.717876469597E+03    0.10529E-03   -0.17038E-03  2151   0.278E-02    0.256E-02
RMM:   9    -0.717876440974E+03    0.28623E-04   -0.82672E-05  2012   0.104E-02    0.134E-02
RMM:  10    -0.717876435752E+03    0.52224E-05   -0.34284E-05  2035   0.558E-03    0.660E-03
RMM:  11    -0.717876434778E+03    0.97334E-06   -0.20068E-05  2274   0.341E-03    0.702E-03
RMM:  12    -0.717876434197E+03    0.58135E-06   -0.13678E-06  2218   0.137E-03    0.441E-03
RMM:  13    -0.717876433137E+03    0.10602E-05   -0.17818E-06  1905   0.126E-03    0.280E-03
RMM:  14    -0.717876432945E+03    0.19227E-06   -0.83668E-07  2229   0.703E-04    0.277E-03
RMM:  15    -0.717876432868E+03    0.76576E-07   -0.38343E-07  2005   0.502E-04    0.142E-03
RMM:  16    -0.717876432794E+03    0.74117E-07   -0.25045E-07  1997   0.357E-04    0.106E-03
RMM:  17    -0.717876432717E+03    0.76838E-07   -0.11351E-07  1667   0.258E-04    0.608E-04
RMM:  18    -0.717876432657E+03    0.60354E-07   -0.86961E-08  1602   0.243E-04    0.162E-04
RMM:  19    -0.717876432658E+03   -0.18408E-08   -0.13311E-08  1198   0.120E-04
  28 F= -.71787643E+03 E0= -.71787251E+03  d E =-.825597E-01
 curvature: -10.33 expect dE=-0.577E+00 dE for cont linesearch -0.180E-03
 trial: gam= 0.34281 g(F)=  0.551E-01 g(S)=  0.681E-03 ort = 0.252E-02 (trialstep = 0.206E+01)
 search vector abs. value=  0.100E+00
 bond charge predicted
       N       E                     dE             d eps       ncg     rms          rms(c)
DAV:   1    -0.717906687237E+03   -0.30255E-01   -0.21948E+01  1848   0.565E+00    0.990E-01
RMM:   2    -0.717963185541E+03   -0.56498E-01   -0.64650E-01  1977   0.106E+00    0.246E-01
RMM:   3    -0.717972002101E+03   -0.88166E-02   -0.12412E-01  2218   0.455E-01    0.381E-01
RMM:   4    -0.717972331131E+03   -0.32903E-03   -0.16062E-02  2170   0.151E-01    0.291E-01
RMM:   5    -0.717970456729E+03    0.18744E-02   -0.59036E-03  1954   0.854E-02    0.922E-02
RMM:   6    -0.717970375117E+03    0.81612E-04   -0.46052E-03  1953   0.696E-02    0.108E-01
RMM:   7    -0.717970063252E+03    0.31187E-03   -0.54964E-04  2060   0.287E-02    0.477E-02
RMM:   8    -0.717969996923E+03    0.66329E-04   -0.11785E-03  2158   0.272E-02    0.284E-02
RMM:   9    -0.717969959995E+03    0.36928E-04   -0.11671E-04  1979   0.133E-02    0.149E-02
RMM:  10    -0.717969931705E+03    0.28289E-04   -0.48810E-05  2164   0.669E-03    0.103E-02
RMM:  11    -0.717969911288E+03    0.20417E-04   -0.28350E-05  2152   0.415E-03    0.822E-03
RMM:  12    -0.717969903148E+03    0.81406E-05   -0.28176E-05  2044   0.446E-03    0.923E-03
RMM:  13    -0.717969891105E+03    0.12042E-04   -0.21326E-05  2165   0.330E-03    0.118E-02
RMM:  14    -0.717969887036E+03    0.40695E-05   -0.14736E-05  2179   0.295E-03    0.437E-03
RMM:  15    -0.717969884938E+03    0.20980E-05   -0.80197E-06  1998   0.231E-03    0.539E-03
RMM:  16    -0.717969882248E+03    0.26896E-05   -0.87652E-06  2186   0.224E-03    0.356E-03
RMM:  17    -0.717969882046E+03    0.20192E-06   -0.36476E-06  2247   0.153E-03    0.304E-03
RMM:  18    -0.717969881061E+03    0.98510E-06   -0.22667E-06  1986   0.124E-03    0.170E-03
RMM:  19    -0.717969880685E+03    0.37627E-06   -0.90840E-07  2126   0.714E-04    0.133E-03
RMM:  20    -0.717969880426E+03    0.25954E-06   -0.31712E-07  2071   0.430E-04    0.615E-04
RMM:  21    -0.717969880449E+03   -0.23410E-07   -0.13209E-07  1926   0.273E-04    0.340E-04
RMM:  22    -0.717969880510E+03   -0.61009E-07   -0.41507E-08  1457   0.177E-04    0.586E-04
RMM:  23    -0.717969880481E+03    0.28747E-07   -0.27771E-08  1320   0.149E-04    0.122E-04
RMM:  24    -0.717969880465E+03    0.16556E-07   -0.10645E-08  1154   0.109E-04    0.220E-04
[...]
 116 F= -.71912477E+03 E0= -.71912006E+03  d E =-.358184E-03
 curvature:  -2.57 expect dE=-0.676E-03 dE for cont linesearch -0.172E-05
 trial: gam= 0.86555 g(F)=  0.261E-03 g(S)=  0.200E-05 ort =-0.206E-04 (trialstep = 0.208E+01)
 search vector abs. value=  0.700E-03
 bond charge predicted
       N       E                     dE             d eps       ncg     rms          rms(c)
DAV:   1    -0.719124800073E+03   -0.27302E-04   -0.83255E-02  1848   0.386E-01    0.947E-02
RMM:   2    -0.719125040697E+03   -0.24062E-03   -0.28186E-03  2017   0.810E-02    0.177E-02
RMM:   3    -0.719125111940E+03   -0.71242E-04   -0.80977E-04  2250   0.361E-02    0.466E-02
RMM:   4    -0.719125113036E+03   -0.10961E-05   -0.82785E-05  2159   0.115E-02    0.354E-02
RMM:   5    -0.719125105251E+03    0.77848E-05   -0.10826E-05  2027   0.433E-03    0.280E-02
RMM:   6    -0.719125107723E+03   -0.24722E-05   -0.21381E-04  2114   0.110E-02    0.185E-02
RMM:   7    -0.719125105347E+03    0.23767E-05   -0.49067E-06  1973   0.315E-03    0.176E-02
RMM:   8    -0.719125095433E+03    0.99135E-05   -0.32726E-05  2066   0.371E-03    0.552E-03
RMM:   9    -0.719125095236E+03    0.19733E-06   -0.88521E-06  2327   0.241E-03    0.254E-03
RMM:  10    -0.719125095300E+03   -0.64738E-07   -0.38151E-07  2031   0.769E-04    0.220E-03
RMM:  11    -0.719125095214E+03    0.85995E-07   -0.93900E-08  1730   0.348E-04    0.206E-03
RMM:  12    -0.719125094998E+03    0.21671E-06   -0.14226E-06  1974   0.743E-04    0.712E-04
RMM:  13    -0.719125094990E+03    0.78835E-08   -0.53262E-08  1519   0.266E-04
 117 F= -.71912509E+03 E0= -.71912038E+03  d E =-.322226E-03
 trial-energy change:   -0.000322  1 .order   -0.000315   -0.000509   -0.000121
 step:   2.6375(harm=  2.7212)  dis= 0.00284  next Energy=  -719.125111 (dE=-0.339E-03)
 bond charge predicted
       N       E                     dE             d eps       ncg     rms          rms(c)
DAV:   1    -0.719125094313E+03    0.68499E-06   -0.60937E-03  1944   0.104E-01    0.260E-02
RMM:   2    -0.719125111957E+03   -0.17645E-04   -0.20717E-04  2019   0.219E-02    0.489E-03
 num prob RMM:   3    -0.719125117249E+03   -0.52913E-05   -0.59844E-05  2226   0.978E-03    0.125E-02
WARNING in EDDRMM: call to ZHEGV failed, returncode =   6  3     37
RMM:   4    -0.719125117295E+03   -0.46475E-07   -0.60735E-06  2142   0.315E-03    0.944E-03
 num prob RMM:   5    -0.719125116673E+03    0.62181E-06   -0.77128E-07  1989   0.122E-03    0.731E-03
RMM:   6    -0.719125116845E+03   -0.17167E-06   -0.15329E-05  2081   0.298E-03    0.496E-03
 num prob RMM:   7    -0.719125116667E+03    0.17782E-06   -0.38907E-07  1878   0.919E-04    0.469E-03
RMM:   8    -0.719125116013E+03    0.65480E-06   -0.16612E-06  1954   0.886E-04    0.198E-03
 num prob RMM:   9    -0.719125115949E+03    0.63708E-07   -0.10043E-06  2085   0.787E-04    0.692E-04
RMM:  10    -0.719125115967E+03   -0.17837E-07   -0.18343E-07  1471   0.319E-04    0.607E-04
 num prob RMM:  11    -0.719125115964E+03    0.28485E-08    0.17989E-08  1175   0.175E-04
 118 F= -.71912512E+03 E0= -.71912040E+03  d E =-.343200E-03
 curvature:  -3.82 expect dE=-0.751E-03 dE for cont linesearch -0.229E-05
 trial: gam= 0.43941 g(F)=  0.195E-03 g(S)=  0.143E-05 ort = 0.205E-04 (trialstep = 0.219E+01)
 search vector abs. value=  0.350E-03
 bond charge predicted
       N       E                     dE             d eps       ncg     rms          rms(c)
DAV:   1    -0.719125219886E+03   -0.10392E-03   -0.50693E-02  1840   0.298E-01    0.678E-02
RMM:   2    -0.719125347975E+03   -0.12809E-03   -0.16285E-03  2019   0.613E-02    0.148E-02
RMM:   3    -0.719125382028E+03   -0.34053E-04   -0.42149E-04  2235   0.266E-02    0.303E-02
RMM:   4    -0.719125382552E+03   -0.52403E-06   -0.52727E-05  2156   0.876E-03    0.228E-02
RMM:   5    -0.719125375809E+03    0.67424E-05   -0.12201E-05  1933   0.424E-03    0.141E-02
RMM:   6    -0.719125374122E+03    0.16875E-05   -0.50267E-05  2027   0.608E-03    0.902E-03
RMM:   7    -0.719125372512E+03    0.16100E-05   -0.29536E-06  1987   0.205E-03    0.713E-03
RMM:   8    -0.719125371772E+03    0.74041E-06   -0.20171E-05  2165   0.368E-03    0.386E-03
RMM:   9    -0.719125371074E+03    0.69784E-06   -0.16173E-06  1794   0.143E-03    0.169E-03
RMM:  10    -0.719125370949E+03    0.12504E-06   -0.28817E-07  1767   0.626E-04    0.933E-04
RMM:  11    -0.719125370597E+03    0.35118E-06   -0.28955E-07  1895   0.459E-04    0.132E-03
RMM:  12    -0.719125370532E+03    0.65833E-07   -0.76315E-08  1639   0.268E-04    0.590E-04
RMM:  13    -0.719125370509E+03    0.22701E-07   -0.60269E-08  1368   0.182E-04    0.182E-04
RMM:  14    -0.719125370497E+03    0.11769E-07   -0.42953E-08  1552   0.170E-04    0.488E-04
RMM:  15    -0.719125370498E+03   -0.48749E-09   -0.47011E-08  1363   0.131E-04
 119 F= -.71912537E+03 E0= -.71912065E+03  d E =-.254534E-03
 trial-energy change:   -0.000255  1 .order   -0.000268   -0.000449   -0.000087
 step:   2.9406(harm=  2.7137)  dis= 0.00209  next Energy=  -719.125385 (dE=-0.269E-03)
 bond charge predicted
       N       E                     dE             d eps       ncg     rms          rms(c)
DAV:   1    -0.719125365424E+03    0.50735E-05   -0.60034E-03  1888   0.102E-01    0.234E-02
RMM:   2    -0.719125381024E+03   -0.15601E-04   -0.19347E-04  2014   0.211E-02    0.507E-03
 num prob RMM:   3    -0.719125385153E+03   -0.41286E-05   -0.49658E-05  2195   0.918E-03    0.105E-02
RMM:   4    -0.719125385111E+03    0.41826E-07   -0.65261E-06  2152   0.307E-03    0.791E-03
 num prob RMM:   5    -0.719125384123E+03    0.98778E-06   -0.13259E-06  1908   0.147E-03    0.493E-03
RMM:   6    -0.719125383517E+03    0.60654E-06   -0.62549E-06  1991   0.217E-03    0.312E-03
 num prob RMM:   7    -0.719125383342E+03    0.17522E-06   -0.37490E-07  1856   0.776E-04    0.245E-03
RMM:   8    -0.719125383265E+03    0.76700E-07   -0.22250E-06  1992   0.125E-03    0.109E-03
 num prob RMM:   9    -0.719125383154E+03    0.11110E-06   -0.17084E-07  1674   0.484E-04    0.517E-04
RMM:  10    -0.719125383108E+03    0.46010E-07   -0.76972E-08  1450   0.241E-04    0.219E-04
 num prob RMM:  11    -0.719125383035E+03    0.72636E-07   -0.25892E-08  1191   0.161E-04    0.506E-04
RMM:  12    -0.719125383000E+03    0.34805E-07   -0.65521E-08  1101   0.124E-04    0.277E-04
 num prob RMM:  13    -0.719125382988E+03    0.12431E-07   -0.43513E-09  1220   0.154E-04    0.160E-04
RMM:  14    -0.719125382995E+03   -0.68139E-08   -0.10720E-07  1032   0.111E-04    0.158E-04
 num prob RMM:  15    -0.719125382992E+03    0.25721E-08    0.24051E-08   993   0.898E-05
 120 F= -.71912538E+03 E0= -.71912067E+03  d E =-.267028E-03
 curvature:  -1.88 expect dE=-0.306E-03 dE for cont linesearch -0.339E-07
 trial: gam= 0.85499 g(F)=  0.162E-03 g(S)=  0.125E-05 ort =-0.251E-05 (trialstep = 0.197E+01)
 search vector abs. value=  0.414E-03
 bond charge predicted
       N       E                     dE             d eps       ncg     rms          rms(c)
DAV:   1    -0.719125436391E+03   -0.53396E-04   -0.42653E-02  1856   0.274E-01    0.645E-02
RMM:   2    -0.719125551478E+03   -0.11509E-03   -0.13780E-03  2017   0.562E-02    0.122E-02
RMM:   3    -0.719125585271E+03   -0.33792E-04   -0.38786E-04  2251   0.249E-02    0.300E-02
RMM:   4    -0.719125585559E+03   -0.28843E-06   -0.40716E-05  2153   0.785E-03    0.225E-02
RMM:   5    -0.719125581285E+03    0.42745E-05   -0.58789E-06  2010   0.312E-03    0.169E-02
RMM:   6    -0.719125579347E+03    0.19377E-05   -0.60519E-05  2068   0.616E-03    0.825E-03
RMM:   7    -0.719125578652E+03    0.69510E-06   -0.22956E-06  2006   0.201E-03    0.799E-03
RMM:   8    -0.719125576917E+03    0.17348E-05   -0.18642E-05  2118   0.316E-03    0.218E-03
RMM:   9    -0.719125576628E+03    0.28932E-06   -0.72113E-07  1817   0.107E-03    0.136E-03
RMM:  10    -0.719125576552E+03    0.75484E-07   -0.26173E-07  1768   0.547E-04    0.495E-04
RMM:  11    -0.719125576520E+03    0.31803E-07   -0.76621E-08  1557   0.262E-04    0.866E-04
RMM:  12    -0.719125576455E+03    0.65218E-07   -0.29872E-08  1375   0.171E-04    0.515E-04
RMM:  13    -0.719125576436E+03    0.19565E-07   -0.61936E-08  1350   0.190E-04    0.975E-05
RMM:  14    -0.719125576438E+03   -0.24884E-08   -0.31564E-10  1063   0.109E-04
 121 F= -.71912558E+03 E0= -.71912086E+03  d E =-.193446E-03
 trial-energy change:   -0.000193  1 .order   -0.000202   -0.000317   -0.000086
 step:   3.0957(harm=  2.7112)  dis= 0.00191  next Energy=  -719.125599 (dE=-0.216E-03)
 bond charge predicted
       N       E                     dE             d eps       ncg     rms          rms(c)
DAV:   1    -0.719125548166E+03    0.28270E-04   -0.13781E-02  1872   0.156E-01    0.367E-02
RMM:   2    -0.719125585575E+03   -0.37409E-04   -0.44603E-04  2017   0.320E-02    0.695E-03
RMM:   3    -0.719125596617E+03   -0.11042E-04   -0.12562E-04  2245   0.141E-02    0.170E-02
RMM:   4    -0.719125596617E+03    0.40382E-09   -0.13018E-05  2136   0.446E-03    0.127E-02
RMM:   5    -0.719125595140E+03    0.14762E-05   -0.19681E-06  2002   0.180E-03    0.946E-03
RMM:   6    -0.719125594294E+03    0.84697E-06   -0.19608E-05  2060   0.353E-03    0.475E-03
RMM:   7    -0.719125594047E+03    0.24636E-06   -0.79645E-07  1975   0.117E-03    0.454E-03
RMM:   8    -0.719125593517E+03    0.53040E-06   -0.59995E-06  2102   0.181E-03    0.120E-03
RMM:   9    -0.719125593404E+03    0.11248E-06   -0.22415E-07  1710   0.617E-04    0.767E-04
RMM:  10    -0.719125593365E+03    0.39643E-07   -0.69521E-08  1606   0.320E-04    0.274E-04
RMM:  11    -0.719125593344E+03    0.21122E-07   -0.29139E-08  1209   0.162E-04    0.492E-04
RMM:  12    -0.719125593313E+03    0.30483E-07   -0.62937E-08  1152   0.118E-04    0.270E-04
RMM:  13    -0.719125593307E+03    0.62500E-08    0.63333E-09  1042   0.874E-05
 122 F= -.71912559E+03 E0= -.71912087E+03  d E =-.210315E-03
 curvature:  -2.54 expect dE=-0.495E-03 dE for cont linesearch -0.502E-06
 trial: gam= 1.03932 g(F)=  0.193E-03 g(S)=  0.165E-05 ort =-0.904E-05 (trialstep = 0.146E+01)
 search vector abs. value=  0.623E-03
 bond charge predicted
       N       E                     dE             d eps       ncg     rms          rms(c)
DAV:   1    -0.719125654730E+03   -0.61417E-04   -0.26871E-02  1864   0.220E-01    0.556E-02
RMM:   2    -0.719125732562E+03   -0.77832E-04   -0.93615E-04  2016   0.463E-02    0.100E-02
RMM:   3    -0.719125757291E+03   -0.24729E-04   -0.28120E-04  2282   0.205E-02    0.265E-02
WARNING in EDDRMM: call to ZHEGV failed, returncode =   8  4     37
RMM:   4    -0.719125757020E+03    0.27064E-06   -0.23208E-05  2121   0.619E-03    0.194E-02
RMM:   5    -0.719125754603E+03    0.24171E-05   -0.35617E-06  2062   0.242E-03    0.151E-02
RMM:   6    -0.719125754444E+03    0.15944E-06   -0.42099E-05  2061   0.496E-03    0.634E-03
RMM:   7    -0.719125754382E+03    0.61224E-07   -0.14601E-06  1944   0.169E-03    0.661E-03
RMM:   8    -0.719125752708E+03    0.16741E-05   -0.94107E-06  2078   0.211E-03    0.125E-03
RMM:   9    -0.719125752748E+03   -0.39556E-07   -0.35078E-07  2018   0.813E-04    0.111E-03
RMM:  10    -0.719125752735E+03    0.12882E-07   -0.98186E-08  1750   0.424E-04    0.679E-04
RMM:  11    -0.719125752765E+03   -0.30388E-07   -0.32377E-08  1292   0.174E-04    0.616E-04
RMM:  12    -0.719125752802E+03   -0.36438E-07   -0.86576E-08  1486   0.220E-04    0.266E-04
RMM:  13    -0.719125752807E+03   -0.56534E-08   -0.33776E-08  1245   0.140E-04
 123 F= -.71912575E+03 E0= -.71912103E+03  d E =-.159501E-03
 trial-energy change:   -0.000160  1 .order   -0.000171   -0.000270   -0.000072
 step:   1.9949(harm=  1.9949)  dis= 0.00132  next Energy=  -719.125778 (dE=-0.185E-03)
 bond charge predicted
       N       E                     dE             d eps       ncg     rms          rms(c)
DAV:   1    -0.719125754778E+03   -0.19761E-05   -0.35904E-03  1952   0.803E-02    0.204E-02
RMM:   2    -0.719125765086E+03   -0.10308E-04   -0.12559E-04  2017   0.169E-02    0.368E-03
WARNING in EDDRMM: call to ZHEGV failed, returncode =   8  4     36
WARNING in EDDRMM: call to ZHEGV failed, returncode =   8  4     40
RMM:   3    -0.719125768343E+03   -0.32572E-05   -0.37615E-05  2250   0.751E-03    0.969E-03
RMM:   4    -0.719125768339E+03    0.35761E-08   -0.32019E-06  2130   0.229E-03    0.705E-03
RMM:   5    -0.719125768037E+03    0.30168E-06   -0.42273E-07  2007   0.901E-04    0.544E-03
RMM:   6    -0.719125768222E+03   -0.18416E-06   -0.59835E-06  2053   0.190E-03    0.248E-03
RMM:   7    -0.719125768193E+03    0.28340E-07   -0.29380E-07  1885   0.654E-04    0.250E-03
RMM:   8    -0.719125767936E+03    0.25681E-06   -0.97077E-07  1956   0.739E-04    0.465E-04
RMM:   9    -0.719125767963E+03   -0.26059E-07   -0.20793E-07  1765   0.382E-04    0.433E-04
RMM:  10    -0.719125767957E+03    0.51077E-08    0.11368E-08  1220   0.167E-04
 124 F= -.71912577E+03 E0= -.71912104E+03  d E =-.174651E-03
 curvature:  -3.36 expect dE=-0.507E-03 dE for cont linesearch -0.867E-06
 trial: gam= 0.44585 g(F)=  0.150E-03 g(S)=  0.444E-06 ort = 0.127E-04 (trialstep = 0.157E+01)
 search vector abs. value=  0.286E-03
 bond charge predicted
       N       E                     dE             d eps       ncg     rms          rms(c)
DAV:   1    -0.719125854968E+03   -0.87005E-04   -0.20201E-02  1848   0.187E-01    0.377E-02
RMM:   2    -0.719125910362E+03   -0.55394E-04   -0.63786E-04  2021   0.383E-02    0.760E-03
WARNING in EDDRMM: call to ZHEGV failed, returncode =   8  4     40
RMM:   3    -0.719125921807E+03   -0.11445E-04   -0.14189E-04  2193   0.161E-02    0.165E-02
 num prob  num prob RMM:   4    -0.719125922913E+03   -0.11060E-05   -0.23418E-05  2161   0.564E-03    0.129E-02
WARNING in EDDRMM: call to ZHEGV failed, returncode =   8  4     38
RMM:   5    -0.719125921159E+03    0.17542E-05   -0.31399E-06  1978   0.227E-03    0.872E-03
WARNING in EDDRMM: call to ZHEGV failed, returncode =   8  4     37
RMM:   6    -0.719125921379E+03   -0.21999E-06   -0.24489E-05  2066   0.423E-03    0.621E-03
RMM:   7    -0.719125920758E+03    0.62116E-06   -0.95714E-07  1854   0.135E-03    0.505E-03
RMM:   8    -0.719125920112E+03    0.64643E-06   -0.83844E-06  2110   0.206E-03    0.173E-03
RMM:   9    -0.719125920014E+03    0.97447E-07   -0.42775E-07  1765   0.766E-04    0.102E-03
RMM:  10    -0.719125920018E+03   -0.41546E-08   -0.19727E-07  1795   0.424E-04    0.524E-04
RMM:  11    -0.719125920027E+03   -0.82582E-08   -0.21763E-08  1476   0.219E-04
 125 F= -.71912592E+03 E0= -.71912120E+03  d E =-.152069E-03
 trial-energy change:   -0.000152  1 .order   -0.000158   -0.000245   -0.000071
 step:   2.5094(harm=  2.2011)  dis= 0.00114  next Energy=  -719.125940 (dE=-0.172E-03)
 bond charge predicted
       N       E                     dE             d eps       ncg     rms          rms(c)
DAV:   1    -0.719125911835E+03    0.81829E-05   -0.72744E-03  1864   0.112E-01    0.223E-02
RMM:   2    -0.719125931715E+03   -0.19880E-04   -0.23009E-04  2027   0.230E-02    0.451E-03
 num prob  num prob  num prob WARNING in EDDRMM: call to ZHEGV failed, returncode =   8  4     40
RMM:   3    -0.719125935671E+03   -0.39556E-05   -0.49977E-05  2148   0.958E-03    0.973E-03
WARNING in EDDRMM: call to ZHEGV failed, returncode =   8  4     38
WARNING in EDDRMM: call to ZHEGV failed, returncode =   8  4     38
RMM:   4    -0.719125936099E+03   -0.42782E-06   -0.86679E-06  2188   0.344E-03    0.763E-03
 num prob  num prob RMM:   5    -0.719125935454E+03    0.64511E-06   -0.10331E-06  1956   0.140E-03    0.501E-03
RMM:   6    -0.719125935650E+03   -0.19667E-06   -0.87804E-06  2052   0.258E-03    0.378E-03
 num prob  num prob RMM:   7    -0.719125935406E+03    0.24461E-06   -0.28519E-07  1770   0.851E-04    0.306E-03
RMM:   8    -0.719125935130E+03    0.27581E-06   -0.24219E-06  2027   0.112E-03    0.617E-04
 num prob  num prob RMM:   9    -0.719125935131E+03   -0.11460E-08   -0.91940E-08  1716   0.453E-04
 126 F= -.71912594E+03 E0= -.71912121E+03  d E =-.167174E-03
 curvature:  -1.53 expect dE=-0.211E-03 dE for cont linesearch -0.631E-06
 trial: gam= 0.95034 g(F)=  0.136E-03 g(S)=  0.826E-06 ort =-0.108E-04 (trialstep = 0.134E+01)
 search vector abs. value=  0.375E-03
 bond charge predicted
       N       E                     dE             d eps       ncg     rms          rms(c)
DAV:   1    -0.719125997336E+03   -0.62206E-04   -0.17578E-02  1824   0.177E-01    0.392E-02
RMM:   2    -0.719126043449E+03   -0.46113E-04   -0.56586E-04  2012   0.363E-02    0.768E-03
RMM:   3    -0.719126055748E+03   -0.12299E-04   -0.14906E-04  2229   0.161E-02    0.179E-02
 num prob WARNING in EDDRMM: call to ZHEGV failed, returncode =   8  4     36
 num prob RMM:   4    -0.719126056586E+03   -0.83815E-06   -0.19203E-05  2146   0.533E-03    0.138E-02
RMM:   5    -0.719126055038E+03    0.15483E-05   -0.30854E-06  1978   0.225E-03    0.962E-03
 num prob  num prob RMM:   6    -0.719126055563E+03   -0.52503E-06   -0.21935E-05  2039   0.390E-03    0.529E-03
RMM:   7    -0.719126055324E+03    0.23908E-06   -0.11676E-06  1988   0.136E-03    0.530E-03
 num prob  num prob RMM:   8    -0.719126054461E+03    0.86279E-06   -0.74650E-06  2102   0.219E-03    0.155E-03
RMM:   9    -0.719126054459E+03    0.20518E-08   -0.56291E-07  1775   0.805E-04    0.948E-04
 num prob  num prob RMM:  10    -0.719126054469E+03   -0.10157E-07   -0.43762E-08  1628   0.375E-04    0.459E-04
 num prob  num prob RMM:  11    -0.719126054511E+03   -0.42150E-07   -0.13089E-07  1403   0.229E-04    0.372E-04
RMM:  12    -0.719126054554E+03   -0.43085E-07   -0.31721E-08  1174   0.152E-04    0.343E-04
 num prob  num prob RMM:  13    -0.719126054570E+03   -0.15487E-07   -0.78421E-08  1111   0.138E-04    0.187E-04
RMM:  14    -0.719126054570E+03   -0.41837E-09   -0.10181E-07  1196   0.165E-04    0.258E-04
 num prob  num prob RMM:  15    -0.719126054546E+03    0.24538E-07    0.23051E-08  1032   0.119E-04    0.822E-05
RMM:  16    -0.719126054534E+03    0.11772E-07   -0.10263E-07   975   0.106E-04    0.104E-04
 num prob  num prob RMM:  17    -0.719126054534E+03   -0.39290E-09   -0.89597E-08   898   0.894E-05
 127 F= -.71912605E+03 E0= -.71912133E+03  d E =-.119403E-03
 trial-energy change:   -0.000119  1 .order   -0.000118   -0.000170   -0.000066
 step:   2.0764(harm=  2.1813)  dis= 0.00133  next Energy=  -719.126073 (dE=-0.138E-03)
 bond charge predicted
       N       E                     dE             d eps       ncg     rms          rms(c)
DAV:   1    -0.719126059922E+03   -0.53878E-05   -0.53151E-03  1856   0.976E-02    0.215E-02
RMM:   2    -0.719126073747E+03   -0.13825E-04   -0.17139E-04  2013   0.200E-02    0.418E-03
 num prob  num prob RMM:   3    -0.719126077415E+03   -0.36681E-05   -0.45076E-05  2198   0.885E-03    0.985E-03
WARNING in EDDRMM: call to ZHEGV failed, returncode =   6  3     36
WARNING in EDDRMM: call to ZHEGV failed, returncode =   8  4     40
RMM:   4    -0.719126077721E+03   -0.30670E-06   -0.59485E-06  2152   0.297E-03    0.758E-03
 num prob RMM:   5    -0.719126077298E+03    0.42354E-06   -0.80968E-07  1950   0.126E-03    0.532E-03
 num prob RMM:   6    -0.719126077708E+03   -0.41026E-06   -0.71545E-06  2037   0.225E-03    0.306E-03
RMM:   7    -0.719126077612E+03    0.96035E-07   -0.39656E-07  1915   0.786E-04    0.298E-03
 num prob  num prob RMM:   8    -0.719126077309E+03    0.30281E-06   -0.24834E-06  2053   0.128E-03    0.890E-04
 num prob RMM:   9    -0.719126077332E+03   -0.23083E-07   -0.25160E-07  1682   0.489E-04    0.535E-04
 num prob RMM:  10    -0.719126077341E+03   -0.83601E-08   -0.11644E-08  1453   0.243E-04
 128 F= -.71912608E+03 E0= -.71912135E+03  d E =-.142210E-03
 curvature:  -3.17 expect dE=-0.377E-03 dE for cont linesearch -0.839E-06
 trial: gam= 0.56959 g(F)=  0.118E-03 g(S)=  0.915E-06 ort = 0.996E-05 (trialstep = 0.149E+01)
 search vector abs. value=  0.252E-03
 reached required accuracy - stopping structural energy minimisation
