unknown system                          
           1
    -8.907327    8.907327    0.000000
   -17.814655    0.000000    0.000000
     0.000000    0.000000   44.330709
   Cl   Na   O 
    32   204    32
Direct configuration=     1
   0.15284772  0.05351036  0.08469459
   0.15284652  0.05351208  0.18738864
   0.15284543  0.05351245  0.28917208
   0.15284798  0.05351047  0.38979769
   0.15284775  0.30351072  0.08471822
   0.15284747  0.30351212  0.18738088
   0.15285008  0.30351096  0.28914073
   0.15284815  0.30351038  0.38984689
   0.15284786  0.55351012  0.08469460
   0.15284974  0.55351108  0.18738805
   0.15284940  0.55351193  0.28917263
   0.15284788  0.55351070  0.38979778
   0.15284781  0.80351055  0.08471817
   0.15284474  0.80351248  0.18738015
   0.15284693  0.80351188  0.28914133
   0.15284763  0.80351103  0.38984690
   0.65284772  0.05351036  0.08469459
   0.65284652  0.05351208  0.18738865
   0.65284543  0.05351245  0.28917209
   0.65284798  0.05351047  0.38979769
   0.65284775  0.30351072  0.08471822
   0.65284746  0.30351212  0.18738088
   0.65285007  0.30351095  0.28914074
   0.65284813  0.30351038  0.38984688
   0.65284786  0.55351012  0.08469460
   0.65284974  0.55351108  0.18738805
   0.65284939  0.55351194  0.28917264
   0.65284788  0.55351070  0.38979776
   0.65284781  0.80351055  0.08471817
   0.65284474  0.80351248  0.18738014
   0.65284693  0.80351188  0.28914133
   0.65284765  0.80351103  0.38984689
   0.40284855  0.05350907  0.08544990
   0.15264987  0.17857688  0.03384518
   0.40284808  0.05351090  0.18742341
   0.15282029  0.17972408  0.13645686
   0.40284852  0.05350926  0.28920990
   0.15262545  0.17837590  0.23835750
   0.40285012  0.05350844  0.39016408
   0.15277608  0.17777044  0.34026703
   0.40304201  0.17837869  0.03383663
   0.40284974  0.30350828  0.08549788
   0.15305427  0.42843836  0.03384517
   0.40540709  0.17718773  0.13631647
   0.40284583  0.30351908  0.18739780
   0.15284054  0.42732292  0.13645684
   0.40249730  0.17860026  0.23834786
   0.40284831  0.30350903  0.28926139
   0.15306863  0.42865520  0.23835741
   0.40116663  0.17935247  0.34022735
   0.40284951  0.30350894  0.39032152
   0.15292232  0.42924975  0.34026685
   0.40264864  0.42866250  0.03384190
   0.40284882  0.55350865  0.08545021
   0.15264994  0.67857687  0.03384520
   0.40027996  0.42983885  0.13631565
   0.40284669  0.55350971  0.18742385
   0.15282125  0.67972379  0.13645700
   0.40320817  0.42842527  0.23834888
   0.40283558  0.55351239  0.28920780
   0.15262453  0.67837658  0.23835723
   0.40453116  0.42766586  0.34022659
   0.40284982  0.55350885  0.39016445
   0.15277568  0.67777060  0.34026686
   0.40304198  0.67837865  0.03383664
   0.40284996  0.80350794  0.08549755
   0.15305437  0.92843829  0.03384514
   0.40540802  0.67718543  0.13631647
   0.40284568  0.80351057  0.18739722
   0.15283943  0.92732325  0.13645633
   0.40249729  0.67860044  0.23834788
   0.40284962  0.80351021  0.28926072
   0.15306969  0.92865292  0.23835772
   0.40116578  0.67935390  0.34022700
   0.40284928  0.80350929  0.39032106
   0.15292270  0.92924917  0.34026653
   0.40264872  0.92866241  0.03384188
   0.40028078  0.92983869  0.13631573
   0.40320681  0.92841588  0.23834502
   0.40453201  0.92766548  0.34022657
   0.90284852  0.05350908  0.08544989
   0.65264985  0.17857689  0.03384518
   0.90284806  0.05351091  0.18742341
   0.65282029  0.17972410  0.13645686
   0.90284841  0.05350928  0.28920990
   0.65262544  0.17837590  0.23835749
   0.90285028  0.05350834  0.39016407
   0.65277608  0.17777044  0.34026705
   0.90304201  0.17837868  0.03383659
   0.90284973  0.30350827  0.08549786
   0.65305424  0.42843837  0.03384514
   0.90540711  0.17718771  0.13631646
   0.90284585  0.30351906  0.18739779
   0.65284056  0.42732290  0.13645682
   0.90249732  0.17860024  0.23834787
   0.90284825  0.30350906  0.28926140
   0.65306865  0.42865519  0.23835741
   0.90116649  0.17935253  0.34022734
   0.90284965  0.30350883  0.39032153
   0.65292231  0.42924977  0.34026690
   0.90264867  0.42866248  0.03384186
   0.90284880  0.55350865  0.08545020
   0.65264995  0.67857687  0.03384519
   0.90027996  0.42983884  0.13631562
   0.90284663  0.55350972  0.18742385
   0.65282125  0.67972381  0.13645699
   0.90320819  0.42842526  0.23834888
   0.90283557  0.55351241  0.28920780
   0.65262453  0.67837657  0.23835723
   0.90453103  0.42766593  0.34022661
   0.90285004  0.55350876  0.39016445
   0.65277568  0.67777056  0.34026687
   0.90304202  0.67837863  0.03383661
   0.90284993  0.80350794  0.08549754
   0.65305435  0.92843830  0.03384513
   0.90540798  0.67718544  0.13631647
   0.90284568  0.80351056  0.18739723
   0.65283944  0.92732322  0.13645633
   0.90249730  0.67860043  0.23834789
   0.90284958  0.80351022  0.28926074
   0.65306970  0.92865292  0.23835773
   0.90116562  0.67935398  0.34022702
   0.90284949  0.80350918  0.39032108
   0.65292271  0.92924917  0.34026659
   0.90264872  0.92866241  0.03384186
   0.90028077  0.92983870  0.13631572
   0.90320683  0.92841587  0.23834501
   0.90453189  0.92766554  0.34022658
   0.16946254  0.06701966  0.50199610
   0.16986781  0.23320294  0.45674011
   0.16943331  0.06710608  0.59419062
   0.16958320  0.23360491  0.54629070
   0.16945235  0.06706374  0.68804972
   0.16941144  0.23378763  0.64196413
   0.16941167  0.06699651  0.78093054
   0.16951626  0.23368146  0.73485510
   0.16960188  0.06693346  0.87662644
   0.16945761  0.23363852  0.82872385
   0.16924332  0.06752149  0.96614694
   0.16946712  0.23374939  0.92094259
   0.50238900  0.06606728  0.50213790
   0.50344374  0.23288222  0.45682916
   0.50087630  0.06686609  0.59452750
   0.50433857  0.23160937  0.54687660
   0.50301808  0.06542182  0.68772244
   0.50327308  0.23266313  0.64134737
   0.50334352  0.06599824  0.78156537
   0.50292150  0.23211641  0.73513621
   0.50428044  0.06500453  0.87601682
   0.50079073  0.23366168  0.82838474
   0.50379592  0.06596105  0.96608045
   0.50233400  0.23270471  0.92077831
   0.16945483  0.40028243  0.50192227
   0.16953540  0.56682366  0.45681756
   0.16948080  0.40035394  0.59417929
   0.16939625  0.56708928  0.54625969
   0.16954329  0.40033554  0.68803849
   0.16935699  0.56718096  0.64193211
   0.16937596  0.40040268  0.78097716
   0.16956786  0.56703498  0.73484279
   0.16944697  0.40039147  0.87662877
   0.16958999  0.56697386  0.82870155
   0.16945256  0.40049042  0.96616341
   0.16942715  0.56711173  0.92092624
   0.83653842  0.06802276  0.50216078
   0.83523760  0.23465328  0.45681935
   0.83821068  0.06710477  0.59452572
   0.83446696  0.23584530  0.54688467
   0.83584490  0.06860011  0.68777697
   0.83567434  0.23474065  0.64135432
   0.83570210  0.06803104  0.78153828
   0.83588685  0.23527095  0.73513702
   0.83464598  0.06921303  0.87603071
   0.83804448  0.23384905  0.82838270
   0.83526411  0.06806014  0.96604834
   0.83647745  0.23483561  0.92075823
   0.50232126  0.39942887  0.50212815
   0.50370696  0.56601680  0.45682548
   0.50085714  0.40019247  0.59451688
   0.50414486  0.56504001  0.54684210
   0.50293401  0.39879350  0.68772709
   0.50324739  0.56599330  0.64135170
   0.50317297  0.39936174  0.78155928
   0.50291051  0.56544977  0.73514346
   0.50436495  0.39831002  0.87601624
   0.50081701  0.56693472  0.82836534
   0.50346349  0.39950946  0.96608510
   0.50230414  0.56618648  0.92077846
   0.16932891  0.73384562  0.50198376
   0.16960487  0.90017202  0.45680547
   0.16937182  0.73377473  0.59418635
   0.16963920  0.90026173  0.54626888
   0.16951408  0.73371829  0.68804462
   0.16955288  0.90039235  0.64194666
   0.16937472  0.73382745  0.78096004
   0.16954394  0.90031390  0.73485674
   0.16969422  0.73357909  0.87661656
   0.16952106  0.90031367  0.82869405
   0.16926373  0.73415978  0.96615047
   0.16933663  0.90053112  0.92090651
   0.83679679  0.40122518  0.50211486
   0.83543733  0.56788755  0.45680411
   0.83810157  0.40048914  0.59449804
   0.83451671  0.56916561  0.54687764
   0.83587174  0.40196280  0.68776409
   0.83555053  0.56820165  0.64133938
   0.83571746  0.40142956  0.78155683
   0.83591318  0.56860118  0.73513310
   0.83470817  0.40247874  0.87600323
   0.83805456  0.56725971  0.82839560
   0.83532786  0.40131096  0.96611389
   0.83664669  0.56803357  0.92078036
   0.50238259  0.73272866  0.50211855
   0.50375490  0.89932406  0.45680890
   0.50089091  0.73349146  0.59453796
   0.50412294  0.89836693  0.54686559
   0.50293761  0.73211228  0.68774677
   0.50324223  0.89935770  0.64136649
   0.50334208  0.73269569  0.78159077
   0.50289894  0.89879061  0.73513609
   0.50430030  0.73164221  0.87600244
   0.50096586  0.90020825  0.82835819
   0.50348825  0.73283107  0.96608999
   0.50242147  0.89937058  0.92075160
   0.83651098  0.73467253  0.50214102
   0.83522434  0.90127822  0.45683152
   0.83800774  0.73393016  0.59450137
   0.83457333  0.90247481  0.54688647
   0.83586650  0.73528520  0.68778418
   0.83574657  0.90136037  0.64131563
   0.83575026  0.73478302  0.78155839
   0.83592494  0.90192115  0.73513690
   0.83467779  0.73583225  0.87600866
   0.83811792  0.90055388  0.82839546
   0.83530692  0.73473161  0.96607735
   0.83659724  0.90134250  0.92074851
   0.40284868  0.05350927  0.03486004
   0.40282178  0.05352422  0.13645976
   0.40284348  0.05352092  0.23832320
   0.40284785  0.05351046  0.34017563
   0.40285067  0.30350838  0.03487753
   0.40282292  0.30352333  0.13647287
   0.40284986  0.30350902  0.23833708
   0.40284949  0.30350888  0.34022136
   0.40284876  0.55350918  0.03486014
   0.40282319  0.55352254  0.13645946
   0.40284827  0.55350774  0.23832255
   0.40284874  0.55350975  0.34017543
   0.40285054  0.80350850  0.03487742
   0.40282180  0.80352351  0.13647188
   0.40284386  0.80352071  0.23833646
   0.40284767  0.80351107  0.34022164
   0.90284869  0.05350927  0.03486003
   0.90282177  0.05352422  0.13645976
   0.90284347  0.05352092  0.23832319
   0.90284784  0.05351046  0.34017562
   0.90285067  0.30350838  0.03487752
   0.90282292  0.30352332  0.13647285
   0.90284986  0.30350902  0.23833708
   0.90284948  0.30350888  0.34022137
   0.90284877  0.55350917  0.03486013
   0.90282318  0.55352254  0.13645945
   0.90284827  0.55350774  0.23832255
   0.90284875  0.55350974  0.34017544
   0.90285053  0.80350850  0.03487742
   0.90282180  0.80352350  0.13647188
   0.90284386  0.80352071  0.23833646
   0.90284767  0.80351107  0.34022165
unknown system                          
           1
    -8.890493    8.889558   -0.000021
   -17.780937    0.000048   -0.000073
     0.000181    0.000078   44.188366
   Cl   Na   O 
    32   204    32
Direct configuration=     2
   0.15285529  0.05349802  0.08470310
   0.15285958  0.05350479  0.18737350
   0.15286557  0.05351131  0.28915597
   0.15279243  0.05345508  0.38974911
   0.15287741  0.30346655  0.08474208
   0.15287060  0.30349535  0.18737281
   0.15286064  0.30352844  0.28914054
   0.15289783  0.30328159  0.38989193
   0.15286872  0.55351156  0.08472272
   0.15286212  0.55350512  0.18737781
   0.15285822  0.55350274  0.28917626
   0.15290803  0.55356528  0.38983787
   0.15286658  0.80351883  0.08473340
   0.15286808  0.80349778  0.18737021
   0.15286216  0.80349524  0.28913225
   0.15283442  0.80373325  0.38984554
   0.65287976  0.05349614  0.08471404
   0.65286082  0.05350473  0.18737575
   0.65284819  0.05351240  0.28916509
   0.65303257  0.05344779  0.38982962
   0.65291613  0.30347180  0.08473683
   0.65287252  0.30349537  0.18737143
   0.65283247  0.30352562  0.28913451
   0.65328279  0.30329530  0.38986507
   0.65283899  0.55350931  0.08471618
   0.65286083  0.55350515  0.18737571
   0.65287890  0.55350393  0.28916651
   0.65265859  0.55356499  0.38983497
   0.65282257  0.80352297  0.08473968
   0.65286611  0.80349785  0.18737162
   0.65289364  0.80349244  0.28913822
   0.65243733  0.80373980  0.38988437
   0.40287558  0.05352542  0.08550134
   0.15268298  0.17886380  0.03383049
   0.40280830  0.05350142  0.18741304
   0.15290666  0.17971038  0.13646618
   0.40285646  0.05349170  0.28922377
   0.15262324  0.17838454  0.23835853
   0.40292665  0.05359100  0.39021717
   0.15282073  0.17767361  0.34026089
   0.40269154  0.17880053  0.03392870
   0.40283284  0.30351846  0.08554093
   0.15276247  0.42872931  0.03419923
   0.40538299  0.17724767  0.13632257
   0.40285623  0.30349953  0.18739211
   0.15278493  0.42731327  0.13645537
   0.40244973  0.17867415  0.23835188
   0.40291878  0.30346274  0.28925604
   0.15292101  0.42871295  0.23836020
   0.40121905  0.17928208  0.34021603
   0.40219946  0.30396460  0.39013480
   0.15293156  0.42924870  0.34023366
   0.40197142  0.42882870  0.03405678
   0.40285073  0.55351364  0.08550062
   0.15261416  0.67825146  0.03401404
   0.40026443  0.42977064  0.13632016
   0.40280676  0.55349921  0.18741226
   0.15290643  0.67969182  0.13646264
   0.40318462  0.42837459  0.23835132
   0.40285804  0.55350048  0.28921872
   0.15262292  0.67839737  0.23835588
   0.40465131  0.42762483  0.34020753
   0.40253712  0.55344261  0.39011831
   0.15283221  0.67777325  0.34024804
   0.40314051  0.67821379  0.03381436
   0.40290111  0.80347359  0.08554178
   0.15296972  0.92836973  0.03371598
   0.40539816  0.67723163  0.13632463
   0.40285834  0.80348923  0.18739366
   0.15278808  0.92730388  0.13646431
   0.40244128  0.67868181  0.23835346
   0.40288542  0.80348621  0.28926446
   0.15291750  0.92871804  0.23836619
   0.40114742  0.67936838  0.34022464
   0.40319785  0.80331373  0.39038549
   0.15290540  0.92930245  0.34026526
   0.40301440  0.92846081  0.03377912
   0.40029539  0.92975854  0.13632600
   0.40316062  0.92838106  0.23835176
   0.40448080  0.92768845  0.34022574
   0.90283246  0.05352664  0.08549821
   0.65212297  0.17886460  0.03386179
   0.90280811  0.05350141  0.18741421
   0.65289488  0.17970603  0.13646464
   0.90287538  0.05349191  0.28922751
   0.65263021  0.17838819  0.23835782
   0.90264085  0.05356583  0.39028055
   0.65290722  0.17768998  0.34025325
   0.90271539  0.17861562  0.03373140
   0.90285082  0.30352308  0.08554340
   0.65271366  0.42860550  0.03385940
   0.90537644  0.17724971  0.13632782
   0.90285858  0.30349800  0.18739394
   0.65278312  0.42731235  0.13645993
   0.90245338  0.17867286  0.23835500
   0.90290600  0.30346259  0.28926327
   0.65292321  0.42871274  0.23836314
   0.90125166  0.17928117  0.34023406
   0.90283303  0.30372005  0.39035098
   0.65294730  0.42925062  0.34025059
   0.90284311  0.42882244  0.03397786
   0.90288221  0.55351428  0.08549617
   0.65335261  0.67829489  0.03393489
   0.90028252  0.42976816  0.13632090
   0.90280967  0.55349891  0.18741105
   0.65291881  0.67969484  0.13646308
   0.90317267  0.42837785  0.23835197
   0.90283844  0.55350036  0.28921365
   0.65261667  0.67839414  0.23835655
   0.90454506  0.42762746  0.34020927
   0.90337207  0.55338745  0.38993046
   0.65273726  0.67776596  0.34024840
   0.90348129  0.67800257  0.03410955
   0.90287152  0.80347863  0.08554253
   0.65319622  0.92826791  0.03389324
   0.90540101  0.67723067  0.13631995
   0.90285879  0.80348831  0.18739184
   0.65279054  0.92730553  0.13645897
   0.90243996  0.67868098  0.23835045
   0.90289757  0.80348688  0.28925779
   0.65291616  0.92871698  0.23836307
   0.90113086  0.67937136  0.34020788
   0.90311872  0.80308544  0.39022064
   0.65288110  0.92929956  0.34024755
   0.90251038  0.92849799  0.03380844
   0.90027368  0.92976357  0.13632451
   0.90317497  0.92837750  0.23835108
   0.90460322  0.92766761  0.34022007
   0.16946272  0.06705429  0.50200145
   0.16970046  0.23360410  0.45660741
   0.16944960  0.06708871  0.59419897
   0.16957407  0.23362257  0.54632061
   0.16947349  0.06705108  0.68804765
   0.16943547  0.23375750  0.64195405
   0.16940384  0.06699382  0.78093807
   0.16951426  0.23367612  0.73485724
   0.16958992  0.06696247  0.87661048
   0.16944608  0.23364603  0.82871934
   0.16927842  0.06755445  0.96598240
   0.16947103  0.23377180  0.92092061
   0.50231107  0.06606750  0.50213885
   0.50439467  0.23216976  0.45715218
   0.50087270  0.06686138  0.59452685
   0.50430116  0.23166191  0.54688287
   0.50305387  0.06541876  0.68773338
   0.50326803  0.23263888  0.64135110
   0.50333132  0.06599311  0.78156323
   0.50295481  0.23211929  0.73513120
   0.50422670  0.06504377  0.87601505
   0.50080889  0.23364988  0.82838933
   0.50318846  0.06582417  0.96613358
   0.50235232  0.23271635  0.92077845
   0.16946332  0.40030441  0.50193536
   0.16940667  0.56676572  0.45660122
   0.16949742  0.40033767  0.59418848
   0.16937662  0.56711375  0.54629218
   0.16957012  0.40032340  0.68803749
   0.16937991  0.56717310  0.64192254
   0.16936863  0.40039949  0.78098003
   0.16956729  0.56704272  0.73484313
   0.16943325  0.40042020  0.87661102
   0.16958424  0.56699760  0.82869579
   0.16969041  0.40040237  0.96601980
   0.16943143  0.56709735  0.92090413
   0.83658064  0.06802858  0.50216495
   0.83475419  0.23468792  0.45681855
   0.83820391  0.06710900  0.59452305
   0.83449703  0.23583796  0.54689506
   0.83585692  0.06857395  0.68778476
   0.83571757  0.23475823  0.64135833
   0.83573908  0.06803038  0.78153572
   0.83589552  0.23527122  0.73512787
   0.83469882  0.06916566  0.87602240
   0.83803062  0.23387893  0.82838904
   0.83612013  0.06788026  0.96638215
   0.83644262  0.23483034  0.92074538
   0.50224721  0.39949496  0.50212587
   0.50446298  0.56603354  0.45694681
   0.50085750  0.40019169  0.59451511
   0.50411748  0.56507500  0.54685425
   0.50296333  0.39880006  0.68773773
   0.50324001  0.56595160  0.64135687
   0.50316798  0.39935747  0.78155751
   0.50294097  0.56544315  0.73513673
   0.50430532  0.39836374  0.87601697
   0.50083438  0.56691336  0.82837235
   0.50331505  0.39979533  0.96596022
   0.50234053  0.56620096  0.92077156
   0.16934305  0.73380211  0.50199291
   0.16941148  0.90012697  0.45679957
   0.16938826  0.73375151  0.59419509
   0.16963441  0.90028043  0.54629567
   0.16953825  0.73369820  0.68804232
   0.16957969  0.90038131  0.64193747
   0.16937529  0.73381178  0.78096667
   0.16954218  0.90032566  0.73485911
   0.16968690  0.73359529  0.87660122
   0.16951548  0.90033445  0.82868965
   0.16939840  0.73402540  0.96600275
   0.16935179  0.90050996  0.92088950
   0.83684493  0.40116799  0.50211637
   0.83472411  0.56804602  0.45722379
   0.83809560  0.40048662  0.59449533
   0.83455212  0.56915438  0.54688375
   0.83587289  0.40193220  0.68777213
   0.83559792  0.56820705  0.64134149
   0.83575519  0.40142483  0.78155472
   0.83592536  0.56859882  0.73512673
   0.83475606  0.40242377  0.87599789
   0.83802900  0.56729596  0.82840221
   0.83579605  0.40057169  0.96621675
   0.83661552  0.56802821  0.92077889
   0.50230408  0.73279695  0.50212049
   0.50436692  0.89880194  0.45675310
   0.50089349  0.73349018  0.59453888
   0.50408320  0.89842081  0.54687670
   0.50296616  0.73211907  0.68775931
   0.50323431  0.89933480  0.64137412
   0.50332274  0.73269690  0.78158756
   0.50293497  0.89879232  0.73512868
   0.50424745  0.73169135  0.87599804
   0.50098234  0.90020349  0.82836346
   0.50241965  0.73354551  0.96631529
   0.50246311  0.89935898  0.92074341
   0.83654354  0.73469134  0.50214014
   0.83462882  0.90204187  0.45702079
   0.83799425  0.73393308  0.59449798
   0.83460067  0.90246017  0.54689462
   0.83587530  0.73525678  0.68778989
   0.83579237  0.90135914  0.64131937
   0.83578114  0.73478324  0.78155601
   0.83593780  0.90190584  0.73512859
   0.83472834  0.73578673  0.87600521
   0.83809877  0.90057261  0.82840235
   0.83545013  0.73497215  0.96596830
   0.83657386  0.90135708  0.92074307
   0.40320161  0.05360333  0.03461236
   0.40281965  0.05351977  0.13642799
   0.40284770  0.05352217  0.23832676
   0.40289628  0.05352412  0.34014891
   0.40228036  0.30386297  0.03477846
   0.40284173  0.30351828  0.13644675
   0.40283692  0.30352378  0.23834405
   0.40276258  0.30356598  0.34023147
   0.40268201  0.55339995  0.03470357
   0.40283407  0.55352493  0.13643215
   0.40284119  0.55351292  0.23832832
   0.40282322  0.55349610  0.34016244
   0.40357391  0.80302595  0.03456184
   0.40280412  0.80354195  0.13643624
   0.40285504  0.80351573  0.23833754
   0.40293607  0.80345691  0.34019467
   0.90229666  0.05364073  0.03449467
   0.90284291  0.05351917  0.13642334
   0.90283614  0.05352215  0.23832422
   0.90278385  0.05352625  0.34013527
   0.90257721  0.30400616  0.03461798
   0.90283223  0.30351543  0.13643929
   0.90284487  0.30352343  0.23833937
   0.90281543  0.30357541  0.34020111
   0.90324823  0.55340705  0.03479602
   0.90281757  0.55352437  0.13643707
   0.90285345  0.55351289  0.23833156
   0.90291305  0.55349786  0.34018530
   0.90293790  0.80317959  0.03473190
   0.90282042  0.80353914  0.13644371
   0.90284787  0.80351537  0.23834180
   0.90286037  0.80346628  0.34022136
unknown system                          
           1
    -8.848033    8.844740   -0.000073
   -17.695896    0.000170   -0.000256
     0.000638    0.000275   43.829354
   Cl   Na   O 
    32   204    32
Direct configuration=     3
   0.15287442  0.05346685  0.08472462
   0.15289260  0.05348638  0.18733520
   0.15291647  0.05350843  0.28911522
   0.15265206  0.05331511  0.38962618
   0.15295236  0.30335494  0.08480246
   0.15292905  0.30345298  0.18735240
   0.15288732  0.30357261  0.28914007
   0.15302338  0.30270344  0.39000588
   0.15292145  0.55351519  0.08479387
   0.15289340  0.55349007  0.18735189
   0.15288053  0.55347951  0.28918545
   0.15306004  0.55370319  0.38993932
   0.15291402  0.80353976  0.08477193
   0.15292708  0.80346062  0.18734506
   0.15290064  0.80345318  0.28910926
   0.15280105  0.80429479  0.38984209
   0.65296071  0.05346021  0.08476326
   0.65289698  0.05348614  0.18734310
   0.65285517  0.05351228  0.28914739
   0.65349905  0.05328939  0.38991042
   0.65308894  0.30337345  0.08478393
   0.65293585  0.30345305  0.18734751
   0.65278798  0.30356270  0.28911873
   0.65438126  0.30275174  0.38991110
   0.65281656  0.55350727  0.08477080
   0.65288886  0.55349017  0.18734448
   0.65295349  0.55348370  0.28915101
   0.65218022  0.55370221  0.38992912
   0.65275879  0.80355436  0.08479412
   0.65292011  0.80346087  0.18735006
   0.65301168  0.80344331  0.28913034
   0.65140038  0.80431794  0.38997921
   0.40294390  0.05356674  0.08563150
   0.15276666  0.17958882  0.03379334
   0.40270775  0.05347747  0.18738679
   0.15312492  0.17967576  0.13648977
   0.40287654  0.05344734  0.28925888
   0.15261765  0.17840638  0.23836112
   0.40312005  0.05379961  0.39035151
   0.15293358  0.17742893  0.34024535
   0.40180582  0.17986654  0.03416167
   0.40279012  0.30354419  0.08564985
   0.15202503  0.42946459  0.03509511
   0.40532209  0.17739913  0.13633799
   0.40288251  0.30345013  0.18737771
   0.15264438  0.42728890  0.13645164
   0.40232952  0.17886089  0.23836206
   0.40309688  0.30334578  0.28924249
   0.15254794  0.42885892  0.23836726
   0.40135153  0.17910418  0.34018740
   0.40055667  0.30511610  0.38966236
   0.15295492  0.42924603  0.34014969
   0.40025993  0.42924878  0.03460050
   0.40285556  0.55352625  0.08562817
   0.15252375  0.67742916  0.03444125
   0.40022519  0.42959826  0.13633157
   0.40270587  0.55347267  0.18738295
   0.15312169  0.67961103  0.13647690
   0.40312510  0.42824654  0.23835750
   0.40291481  0.55347037  0.28924635
   0.15261885  0.67844991  0.23835245
   0.40495494  0.42752112  0.34015930
   0.40174686  0.55327526  0.39000156
   0.15297509  0.67777995  0.34020044
   0.40338950  0.67779718  0.03375800
   0.40303036  0.80338679  0.08565370
   0.15275580  0.92819649  0.03338916
   0.40537323  0.67734839  0.13634527
   0.40289034  0.80343529  0.18738464
   0.15265830  0.92725493  0.13648450
   0.40229972  0.67888745  0.23836759
   0.40297588  0.80342555  0.28927393
   0.15253290  0.92888260  0.23838763
   0.40110100  0.67940496  0.34021866
   0.40407876  0.80281950  0.39054851
   0.15286169  0.92943710  0.34026204
   0.40393855  0.92795134  0.03362032
   0.40033230  0.92955602  0.13635198
   0.40304390  0.92829307  0.23836883
   0.40435140  0.92774652  0.34022365
   0.90279186  0.05357103  0.08562046
   0.65079142  0.17959171  0.03390383
   0.90270716  0.05347741  0.18739094
   0.65308337  0.17966036  0.13648434
   0.90294356  0.05344800  0.28927208
   0.65264228  0.17841923  0.23835865
   0.90211159  0.05371113  0.39057526
   0.65323863  0.17748665  0.34021832
   0.90188994  0.17921440  0.03346524
   0.90285359  0.30356050  0.08565864
   0.65185295  0.42902789  0.03389547
   0.90529893  0.17740640  0.13635657
   0.90289074  0.30344478  0.18738419
   0.65263797  0.42728569  0.13646780
   0.90234235  0.17885636  0.23837303
   0.90305195  0.30334517  0.28926800
   0.65255566  0.42885817  0.23837765
   0.90146690  0.17910085  0.34025106
   0.90279101  0.30425380  0.39042549
   0.65301046  0.42925278  0.34020932
   0.90333450  0.42922665  0.03432199
   0.90296663  0.55352850  0.08561249
   0.65512838  0.67758226  0.03416185
   0.90028900  0.42958956  0.13633425
   0.90271626  0.55347159  0.18737867
   0.65316536  0.67962163  0.13647848
   0.90308290  0.42825805  0.23835980
   0.90284568  0.55346990  0.28922844
   0.65259679  0.67843853  0.23835484
   0.90458053  0.42753024  0.34016540
   0.90469135  0.55308081  0.38933842
   0.65264018  0.67775435  0.34020168
   0.90459140  0.67705223  0.03480015
   0.90292609  0.80340457  0.08565636
   0.65355477  0.92783733  0.03401498
   0.90538339  0.67734497  0.13632877
   0.90289192  0.80343209  0.18737821
   0.65266697  0.92726083  0.13646567
   0.90229505  0.67888452  0.23835692
   0.90301884  0.80342789  0.28925033
   0.65252811  0.92887888  0.23837659
   0.90104300  0.67941528  0.34015945
   0.90379914  0.80201463  0.38996651
   0.65277596  0.92942688  0.34019937
   0.90216076  0.92808252  0.03372388
   0.90025575  0.92957374  0.13634676
   0.90309445  0.92828056  0.23836643
   0.90478349  0.92767283  0.34020359
   0.16946319  0.06714181  0.50201500
   0.16927754  0.23461784  0.45627163
   0.16949076  0.06704482  0.59422009
   0.16955101  0.23366719  0.54639629
   0.16952690  0.06701909  0.68804240
   0.16949618  0.23368136  0.64192855
   0.16938406  0.06698704  0.78095711
   0.16950922  0.23366264  0.73486264
   0.16955970  0.06703577  0.87657009
   0.16941695  0.23366500  0.82870791
   0.16936711  0.06763773  0.96556608
   0.16948092  0.23382844  0.92086499
   0.50211414  0.06606806  0.50214124
   0.50679785  0.23036929  0.45796950
   0.50086360  0.06684949  0.59452521
   0.50420662  0.23179467  0.54689872
   0.50314430  0.06541101  0.68776106
   0.50325528  0.23257759  0.64136054
   0.50330048  0.06598016  0.78155781
   0.50303898  0.23212657  0.73511852
   0.50409088  0.06514294  0.87601056
   0.50085479  0.23362005  0.82840096
   0.50165328  0.06547838  0.96626802
   0.50239863  0.23274577  0.92077879
   0.16948479  0.40035994  0.50196849
   0.16908136  0.56661933  0.45605382
   0.16953943  0.40029656  0.59421174
   0.16932700  0.56717557  0.54637439
   0.16963791  0.40029273  0.68803495
   0.16943782  0.56715322  0.64189832
   0.16935012  0.40039144  0.78098728
   0.16956585  0.56706228  0.73484400
   0.16939857  0.40049281  0.87656612
   0.16956970  0.56705758  0.82868121
   0.17029152  0.40017985  0.96565644
   0.16944225  0.56706102  0.92084819
   0.83668735  0.06804327  0.50217551
   0.83353251  0.23477552  0.45681654
   0.83818680  0.06711970  0.59451628
   0.83457303  0.23581941  0.54692135
   0.83588731  0.06850784  0.68780447
   0.83582681  0.23480266  0.64136847
   0.83583255  0.06802872  0.78152923
   0.83591742  0.23527190  0.73510472
   0.83483237  0.06904594  0.87600137
   0.83799558  0.23395445  0.82840508
   0.83828345  0.06742560  0.96722678
   0.83635458  0.23481703  0.92071287
   0.50206006  0.39966198  0.50212010
   0.50637358  0.56607574  0.45725380
   0.50085842  0.40018971  0.59451063
   0.50404830  0.56516342  0.54688499
   0.50303741  0.39881664  0.68776465
   0.50322136  0.56584624  0.64136996
   0.50315536  0.39934670  0.78155305
   0.50301793  0.56542641  0.73511971
   0.50415460  0.39849948  0.87601883
   0.50087827  0.56685937  0.82839009
   0.50293991  0.40051773  0.96564423
   0.50243248  0.56623756  0.92075412
   0.16937880  0.73369216  0.50201608
   0.16892273  0.90001314  0.45678466
   0.16942982  0.73369284  0.59421720
   0.16962231  0.90032768  0.54636346
   0.16959935  0.73364742  0.68803649
   0.16964744  0.90035343  0.64191422
   0.16937672  0.73377218  0.78098346
   0.16953773  0.90035539  0.73486512
   0.16966841  0.73363621  0.87656241
   0.16950138  0.90038696  0.82867851
   0.16973874  0.73368579  0.96562898
   0.16939009  0.90045649  0.92084645
   0.83696659  0.40102346  0.50212020
   0.83292164  0.56844656  0.45828570
   0.83808052  0.40048025  0.59448846
   0.83464160  0.56912599  0.54689920
   0.83587579  0.40185486  0.68779248
   0.83571768  0.56822068  0.64134684
   0.83585053  0.40141288  0.78154938
   0.83595614  0.56859287  0.73511060
   0.83487709  0.40228484  0.87598438
   0.83796442  0.56738756  0.82841893
   0.83697926  0.39870353  0.96647703
   0.83653674  0.56801467  0.92077517
   0.50210566  0.73296954  0.50212540
   0.50591363  0.89748248  0.45661190
   0.50090002  0.73348694  0.59454121
   0.50398275  0.89855697  0.54690482
   0.50303832  0.73213621  0.68779102
   0.50321430  0.89927692  0.64139342
   0.50327386  0.73269996  0.78157945
   0.50302603  0.89879665  0.73510993
   0.50411388  0.73181552  0.87598690
   0.50102400  0.90019147  0.82837679
   0.49971907  0.73535101  0.96688536
   0.50256836  0.89932965  0.92072267
   0.83662583  0.73473885  0.50213793
   0.83312381  0.90397165  0.45749970
   0.83796016  0.73394047  0.59448941
   0.83466976  0.90242317  0.54691524
   0.83589754  0.73518495  0.68780432
   0.83590812  0.90135603  0.64132885
   0.83585918  0.73478379  0.78154998
   0.83597031  0.90186714  0.73510758
   0.83485608  0.73567171  0.87599649
   0.83805036  0.90061996  0.82841977
   0.83581206  0.73557996  0.96569237